ITEM: TIMESTEP
0
ITEM: NUMBER OF ATOMS
7711
ITEM: BOX BOUNDS xy xz yz pp pp pp
-1.1470696736749321e+01 1.5578850732249194e+01 -8.4656002771784979e-15
-5.3855162009401951e+01 6.2071470000401547e+01 3.7760894709293605e-15
-1.4800518080930104e+01 3.6908672076071269e+01 3.7760894709293605e-15
ITEM: ATOMS id type x y z
3 2 -9.36707 -51.8195 -4.58483
39 2 -9.17179 -49.8608 -6.47068
5 2 -11.3507 -51.6363 -6.58243
41 2 -11.2669 -50.176 -4.44813
4 2 -11.2467 -53.5811 -4.51232
1140 2 -7.39068 -49.9488 -4.49632
1105 2 -7.51536 -52.0894 -6.40356
1103 2 -5.52145 -51.9827 -4.76383
1138 2 -5.39838 -49.8305 -6.48442
7609 1 -3.83421 -49.8215 -6.52368
2237 2 -3.64266 -49.9306 -4.65805
2201 2 -3.45592 -51.6525 -6.70197
2199 2 -1.75619 -51.9667 -4.85232
2235 2 -1.54258 -49.7161 -6.51542
2200 2 -3.69843 -53.8037 -4.7967
3312 2 0.300067 -51.6975 -6.63948
3347 2 0.146233 -50.1112 -4.65468
3310 2 2.08957 -52.0405 -4.28946
3345 2 2.25384 -49.9089 -6.20056
3311 2 0.236236 -53.7739 -4.4932
3309 2 1.94067 -53.6352 -6.4744
4448 2 4.15423 -50.0374 -4.4343
4411 2 3.98846 -52.1638 -6.36052
4409 2 5.92715 -52.2025 -4.25769
4446 2 5.79177 -50.1378 -6.18948
5553 2 7.62509 -50.179 -4.51093
6616 2 11.5061 -53.8456 -4.36895
5518 2 8.06193 -52.1987 -6.42178
5516 2 9.94116 -51.7421 -4.48859
5551 2 9.87795 -50.0738 -6.35165
6617 2 11.7725 -51.9572 -6.56467
6653 2 11.8946 -50.057 -4.64868
6615 2 13.8277 -52.1036 -4.67621
6651 2 13.5399 -50.114 -6.47135
6614 2 13.9151 -53.7519 -6.68423
76 2 -8.8906 -46.4216 -6.51665
40 2 -9.45729 -48.129 -4.49398
5661 1 -9.28286 -48.0305 -6.31791
78 2 -11.2126 -46.0873 -4.57988
42 2 -11.1324 -47.9885 -6.3339
1178 2 -7.54148 -46.2588 -4.44475
1141 2 -7.32902 -48.2288 -6.49956
1176 2 -5.55452 -46.0298 -6.36251
1139 2 -5.52663 -48.1111 -4.61118
2238 2 -3.65041 -47.9985 -6.45088
2273 2 -3.68107 -46.2031 -4.36117
2271 2 -1.76726 -46.1518 -6.0941
2236 2 -1.76122 -48.1593 -4.50507
3348 2 0.505156 -47.7479 -6.53942
3385 2 0.289213 -46.1276 -4.42399
5628 1 2.34604 -47.5196 -6.23503
3383 2 2.29764 -45.8951 -6.47695
3346 2 2.0404 -48.0497 -4.20872
4449 2 3.84893 -47.9301 -6.25789
4484 2 4.28525 -46.1504 -4.21185
4482 2 6.03927 -46.3018 -6.38613
4447 2 5.97428 -48.2429 -4.27261
5589 2 7.84768 -46.3208 -4.57422
5554 2 8.04583 -48.22 -6.49612
4518 1 8.08617 -46.4318 -6.33454
5587 2 9.7338 -46.0985 -6.30389
5552 2 9.77838 -48.1662 -4.58893
6690 2 11.6712 -46.1039 -4.50814
6654 2 11.9024 -48.0934 -6.6315
3276 1 12.0913 -49.4604 -6.22353
6688 2 13.8808 -45.8156 -6.3256
6652 2 13.7721 -48.0462 -4.65271
112 2 -9.7419 -42.148 -6.05973
77 2 -9.17506 -44.3558 -4.60841
1179 2 -7.70807 -43.8806 -6.43077
79 2 -11.3354 -44.0757 -6.31391
1214 2 -7.40401 -42.3875 -4.39198
51 1 -7.2419 -42.214 -6.12872
1212 2 -5.60672 -42.334 -6.40967
1177 2 -5.53253 -44.2556 -4.37002
2274 2 -3.6829 -44.1205 -6.28007
2312 2 -3.70287 -42.1942 -4.53559
2310 2 -1.93761 -42.196 -6.26881
2272 2 -1.62069 -44.1857 -4.25353
3422 2 0.0614924 -42.2135 -4.53269
3386 2 -0.0593559 -43.9273 -6.44545
205 1 -0.37119 -42.2465 -6.43287
3420 2 2.3107 -42.2848 -6.28157
3384 2 2.33964 -44.1181 -4.29364
4485 2 4.46458 -44.2096 -6.02216
4522 2 4.31416 -42.0397 -4.55936
4520 2 6.09031 -42.1105 -6.57419
4483 2 6.08047 -44.1367 -4.14856
5626 2 7.87338 -42.2565 -4.32268
5590 2 7.98479 -44.3539 -6.2725
5624 2 10.0827 -42.3965 -6.28291
5588 2 9.83428 -44.4245 -4.27351
6691 2 11.7203 -44.3525 -6.28489
4519 1 11.8006 -42.6895 -6.16981
6727 2 11.8634 -42.4319 -4.34518
114 2 15.2472 -42.3224 -4.50349
6725 2 13.4309 -42.4608 -6.41695
6689 2 13.699 -44.472 -4.39561
149 2 -9.82368 -38.6377 -6.74786
113 2 -9.71503 -40.2496 -4.35148
1250 2 -7.74406 -38.4056 -4.5876
148 1 -11.2989 -38.5855 -6.67356
1215 2 -7.66642 -40.4366 -6.28084
1248 2 -5.83003 -38.2378 -6.56918
1213 2 -5.77197 -40.2037 -4.53909
2313 2 -3.84262 -40.2612 -6.22085
2349 2 -3.40575 -38.2535 -4.62079
2347 2 -1.19798 -38.3325 -6.16144
2311 2 -1.71611 -40.2727 -4.46965
3423 2 0.119516 -40.5763 -6.54071
3459 2 0.242864 -38.4497 -4.27006
3457 2 2.02845 -38.5311 -6.2483
3421 2 2.25472 -40.3256 -4.47733
4523 2 3.95873 -40.0381 -6.62484
4559 2 3.92241 -38.2557 -4.47167
2309 1 6.15926 -40.3371 -6.42421
4557 2 5.91813 -38.5529 -6.41584
4521 2 5.96255 -40.1882 -4.5683
5627 2 7.76398 -40.4246 -6.33299
5664 2 7.83809 -38.4428 -4.49088
5662 2 9.79358 -38.3971 -6.31667
5625 2 10.018 -40.3609 -4.40791
115 2 15.216 -40.0362 -6.74757
151 2 15.4618 -38.4455 -4.44213
6728 2 11.8399 -40.4264 -6.47832
6763 2 11.9197 -38.1768 -4.3822
6761 2 13.7823 -37.8844 -6.63238
6726 2 13.6668 -40.253 -4.51363
185 2 -9.28722 -34.2792 -6.34831
150 2 -9.52761 -36.4689 -4.55643
1251 2 -7.65234 -36.5502 -6.4275
152 2 -11.3449 -36.4423 -6.41135
1287 2 -7.45019 -34.7658 -4.3927
1285 2 -5.74901 -34.6476 -6.43771
1249 2 -5.4 -36.463 -4.53902
2385 2 -3.84119 -34.4879 -4.56888
2350 2 -3.57727 -36.1755 -6.59617
2383 2 -1.39335 -34.5713 -6.81535
2348 2 -1.61144 -36.1194 -4.74941
3460 2 0.373202 -36.3012 -6.29573
1361 1 0.358791 -34.3163 -6.57534
3495 2 0.34903 -34.4462 -4.48789
3493 2 2.31474 -34.4962 -6.65386
3458 2 2.32481 -36.354 -4.23317
4560 2 3.86386 -36.4955 -6.45836
4595 2 4.04064 -34.4541 -4.40301
4593 2 5.76167 -34.6769 -6.39902
4558 2 5.88262 -36.5281 -4.6524
5665 2 7.71612 -36.4646 -6.42648
5701 2 7.8873 -34.5702 -4.7618
5699 2 9.82621 -34.6275 -6.66766
5663 2 9.69299 -36.4548 -4.5123
6764 2 11.5661 -36.4133 -6.21369
187 2 15.5191 -34.6163 -4.61344
6800 2 11.7614 -34.4757 -4.47175
6798 2 13.5426 -34.6027 -6.58821
6762 2 13.8102 -36.4972 -4.55943
223 2 -9.26393 -30.6806 -6.46967
186 2 -9.60386 -32.6508 -4.43354
225 2 -11.2887 -30.7382 -4.56761
1323 2 -7.75215 -30.8057 -4.41609
1288 2 -7.5843 -32.6262 -6.34486
2346 1 -5.89387 -29.164 -6.5817
1321 2 -5.59328 -30.9158 -6.57379
1286 2 -5.74845 -32.7579 -4.63095
2423 2 -3.81941 -30.7218 -4.69647
2386 2 -3.68529 -32.6368 -6.39553
2421 2 -1.78761 -30.5905 -6.58451
2384 2 -1.66284 -32.716 -4.75797
5678 1 0.0893075 -30.2971 -6.14129
3496 2 0.172181 -32.6505 -6.58432
3532 2 0.179725 -30.677 -4.44017
3530 2 2.06273 -30.8332 -6.65257
3494 2 2.1084 -32.5359 -4.37282
4633 2 4.03586 -30.7664 -4.52257
4596 2 4.26085 -32.4891 -6.32782
4631 2 6.11939 -30.6933 -6.4463
4594 2 5.97785 -32.5993 -4.66358
5702 2 7.81707 -32.7219 -6.5054
5737 2 7.93026 -30.7762 -4.61346
5735 2 9.7545 -30.8129 -6.53478
5700 2 9.84883 -32.7133 -4.693
6836 2 11.6947 -30.7966 -4.79041
227 1 11.5487 -30.6563 -6.49027
6801 2 11.79 -32.6801 -6.68211
188 2 15.4971 -32.684 -6.45519
6834 2 13.7159 -30.6467 -6.54624
6799 2 13.7195 -32.6884 -4.58164
6835 2 13.7615 -29.1044 -4.5449
264 2 -11.4113 -25.021 -6.90172
224 2 -9.61762 -28.7647 -4.46415
261 2 -9.42964 -27.0749 -6.59876
1359 2 -7.95901 -26.8331 -4.43961
226 2 -11.2698 -28.951 -6.45511
262 2 -9.8057 -25.0326 -4.77402
1324 2 -7.57538 -28.8739 -6.61208
1322 2 -6.01781 -28.8056 -4.68573
1357 2 -6.00696 -26.8199 -6.57737
2424 2 -3.80999 -28.7159 -6.45732
2460 2 -3.7562 -26.9381 -4.75277
1358 2 -5.93774 -25.03 -4.63257
2422 2 -1.68933 -28.8424 -4.45896
2458 2 -1.8033 -27.0352 -6.6962
3569 2 0.0638235 -26.6721 -4.85148
2461 2 -3.43624 -24.9391 -6.62721
3566 1 -1.89474 -25.4773 -6.39309
3570 2 -0.430111 -24.8914 -6.73674
3533 2 0.223538 -28.9984 -6.76284
3567 2 1.99355 -26.8374 -6.39391
3531 2 1.97313 -28.7675 -4.71961
4634 2 3.87239 -28.9946 -6.54994
3568 2 2.12308 -24.9605 -4.70269
4670 2 3.89064 -24.945 -6.6246
6906 1 5.92439 -24.9679 -6.33432
4669 2 4.03147 -26.9878 -4.4051
4632 2 5.84337 -28.7321 -4.59106
4667 2 5.53728 -26.7533 -6.52522
5738 2 7.75843 -28.8698 -6.29847
5775 2 7.74071 -24.9913 -6.50871
4668 2 5.63131 -24.9044 -4.42769
5774 2 7.94487 -26.8814 -4.73822
5736 2 9.93178 -28.9569 -4.57438
5772 2 9.81512 -27.2189 -6.69488
5773 2 9.84238 -25.1176 -4.60791
263 2 15.3393 -27.0018 -4.30632
6872 2 11.8567 -26.9979 -4.67471
6837 2 11.7911 -28.8923 -6.50626
6870 2 13.8317 -27.024 -6.27707
6873 2 11.8696 -25.1987 -6.53212
6871 2 13.7738 -24.9439 -4.71083
7 2 -9.39629 -52.0022 -0.41832
43 2 -9.21143 -50.0237 -2.30736
45 2 -11.3426 -49.9849 -0.561
9 2 -11.1644 -51.8406 -2.36464
1109 2 -7.51429 -52.0273 -2.51813
1144 2 -7.40114 -50.1619 -0.53307
1107 2 -5.55329 -51.957 -0.509972
1142 2 -5.62684 -49.9217 -2.58543
1106 2 -5.6645 -53.7577 -2.53849
2204 2 -3.66582 -53.8244 -0.696783
2241 2 -3.57504 -49.9124 -0.452019
2205 2 -3.70352 -51.8361 -2.57689
2203 2 -1.69256 -51.9736 -0.339208
2239 2 -1.64645 -50.0778 -2.54277
3316 2 -0.0431778 -52.0647 -2.58646
3351 2 -0.0494992 -49.8375 -0.449649
3313 2 2.06046 -53.7806 -2.47882
3314 2 1.77565 -51.8662 -0.494916
3349 2 2.07405 -50.1042 -2.5936
4452 2 3.775 -49.9182 -0.373967
4414 2 3.90803 -53.8109 -0.359102
4415 2 3.99572 -51.7356 -2.34529
4413 2 6.11678 -51.8318 -0.410543
4450 2 6.11371 -50.073 -2.32601
4412 2 5.86975 -53.8423 -2.17205
5522 2 8.07588 -52.0515 -2.49444
5557 2 7.99171 -50.023 -0.568508
5520 2 9.99465 -51.9369 -0.299274
5555 2 9.9232 -50.0245 -2.44848
5521 2 8.04965 -53.744 -0.264533
6618 2 13.6981 -53.7013 -2.61272
6657 2 11.9634 -49.9261 -0.548616
6621 2 11.7526 -52.1706 -2.31128
6619 2 13.9333 -51.8179 -0.622686
6655 2 13.9361 -50.0567 -2.78569
6620 2 11.94 -53.7928 -0.422588
80 2 -9.38333 -46.0141 -2.35178
44 2 -9.43718 -48.2103 -0.400924
1182 2 -7.62795 -46.3369 -0.571772
46 2 -11.1963 -47.9437 -2.61418
82 2 -11.254 -46.0828 -0.622964
1145 2 -7.59863 -48.0485 -2.41955
1180 2 -5.53958 -46.2407 -2.46937
1143 2 -5.83735 -48.2678 -0.496458
2277 2 -3.69687 -46.2229 -0.45616
2242 2 -3.71451 -48.0692 -2.42933
2275 2 -1.82093 -46.0221 -2.66028
2240 2 -1.8551 -48.0255 -0.395428
3352 2 0.0345911 -48.1439 -2.69348
3389 2 0.104408 -46.0692 -0.583291
3387 2 1.82935 -46.1369 -2.46646
3350 2 1.95437 -47.9095 -0.625919
4488 2 3.71887 -46.0769 -0.563256
4453 2 3.99585 -48.0893 -2.43046
4486 2 5.98259 -46.3313 -2.37387
4451 2 5.87879 -48.1105 -0.398587
5593 2 7.86 -46.2551 -0.306228
5558 2 8.03031 -48.1766 -2.51223
5591 2 9.84363 -46.249 -2.27593
5556 2 9.89114 -48.1697 -0.529266
6658 2 11.8456 -48.193 -2.58699
6694 2 12.1368 -46.2741 -0.467255
6692 2 13.6806 -46.4204 -2.57878
6656 2 13.85 -48.1493 -0.399026
116 2 -9.32 -42.3311 -2.64999
81 2 -9.36442 -44.1819 -0.839032
118 2 -11.3047 -42.4029 -0.545426
1218 2 -7.17404 -42.2993 -0.363839
1183 2 -7.37151 -44.3034 -2.41966
1216 2 -5.49701 -42.1515 -2.79553
1181 2 -5.48769 -44.2897 -0.526439
2316 2 -3.68397 -42.2808 -0.431596
2278 2 -3.62886 -43.9464 -2.37419
2314 2 -1.7839 -42.1904 -2.53401
2276 2 -1.87587 -44.2653 -0.581973
3426 2 -0.0557657 -42.2081 -0.60446
3390 2 0.123581 -44.0727 -2.51931
3424 2 2.05783 -42.1988 -2.51031
3388 2 1.96494 -43.9824 -0.528327
4526 2 3.96883 -42.3464 -0.342061
4489 2 4.06123 -44.1867 -2.30717
4524 2 6.11924 -42.1492 -2.45249
4487 2 5.9969 -44.2293 -0.376143
5594 2 7.85752 -44.1974 -2.45863
5631 2 7.92784 -42.5524 -0.332932
5629 2 9.85215 -42.241 -2.49478
5592 2 9.95854 -44.1304 -0.52436
6731 2 11.6111 -42.1004 -0.465929
83 2 15.5635 -44.2077 -2.72202
6695 2 11.7507 -44.2705 -2.24629
6729 2 13.6045 -42.2926 -2.17008
6693 2 13.875 -44.388 -0.690049
153 2 -9.40657 -38.4354 -2.49713
117 2 -9.25202 -40.2981 -0.558545
155 2 -11.3272 -38.4119 -0.621134
1254 2 -7.53641 -38.2462 -0.561731
1219 2 -7.31839 -40.282 -2.34734
1252 2 -5.33699 -38.2094 -2.56655
1217 2 -5.61187 -40.3055 -0.503101
2353 2 -3.70804 -38.1644 -0.321827
2317 2 -3.70949 -40.4147 -2.46342
2351 2 -1.69983 -38.2989 -2.53473
2315 2 -1.9068 -40.0926 -0.5703
3427 2 0.132732 -40.284 -2.38354
3463 2 0.240035 -38.2104 -0.515498
3461 2 2.11571 -38.2731 -2.35037
3425 2 2.11246 -40.4484 -0.467007
4563 2 4.01493 -38.554 -0.677233
4527 2 4.02634 -40.5001 -2.4266
4561 2 5.86945 -38.2527 -2.59247
4525 2 5.81415 -40.4994 -0.290078
5632 2 7.84036 -40.239 -2.46215
5668 2 7.5264 -38.3257 -0.464563
5666 2 9.89537 -38.3352 -2.5395
5630 2 9.65424 -40.2681 -0.608844
6732 2 11.9409 -40.2512 -2.48544
119 2 15.5689 -40.346 -2.28039
6768 2 11.7482 -38.3477 -0.584809
6766 2 13.5659 -38.3801 -2.41779
6730 2 13.572 -40.1144 -0.480703
189 2 -9.65354 -34.4531 -2.59446
154 2 -9.42477 -36.4527 -0.585758
1255 2 -7.6188 -36.4495 -2.516
156 2 -11.4026 -36.3515 -2.47726
1291 2 -7.57588 -34.3615 -0.529265
1289 2 -5.77308 -34.4982 -2.46348
1253 2 -5.69956 -36.3157 -0.745272
2389 2 -3.78376 -34.4911 -0.457164
2354 2 -3.52888 -36.1687 -2.53513
2387 2 -1.70023 -34.3929 -2.59676
2352 2 -1.77404 -36.3539 -0.550075
3464 2 0.0663385 -36.5094 -2.57306
3499 2 0.03631 -34.4603 -0.604038
3497 2 1.90401 -34.536 -2.43706
3462 2 2.09654 -36.4005 -0.447161
4599 2 3.86899 -34.5995 -0.646432
4564 2 4.10341 -36.3978 -2.59958
4597 2 6.00401 -34.3635 -2.58121
4562 2 5.75447 -36.3554 -0.680872
5669 2 7.8047 -36.3102 -2.75313
5705 2 7.76297 -34.4593 -0.519228
5703 2 9.75777 -34.6217 -2.4404
5667 2 9.73695 -36.5757 -0.690323
6804 2 11.5608 -34.3767 -0.491561
191 2 15.2555 -34.5263 -0.460184
6769 2 11.7562 -36.3527 -2.63824
6802 2 13.7149 -34.5812 -2.60623
6767 2 13.5262 -36.3835 -0.584866
228 2 -9.70086 -30.5706 -2.32592
190 2 -9.5971 -32.6843 -0.689111
1327 2 -7.79999 -30.6873 -0.24232
1292 2 -7.55786 -32.5482 -2.62892
1325 2 -5.76851 -30.7274 -2.47578
1290 2 -5.7753 -32.3677 -0.318923
2427 2 -3.93138 -30.5123 -0.341463
2390 2 -3.89338 -32.7013 -2.57212
2425 2 -1.9909 -30.8829 -2.59159
2388 2 -2.0366 -32.7885 -0.403236
3536 2 -0.0718669 -30.4457 -0.640664
3500 2 0.229206 -32.4231 -2.38468
3534 2 2.12685 -30.4724 -2.56423
3498 2 2.10588 -32.4764 -0.585851
4600 2 3.94155 -32.7423 -2.45419
4637 2 4.00298 -30.5636 -0.531652
4635 2 5.78857 -30.6756 -2.56777
4598 2 5.75424 -32.4799 -0.452893
5741 2 7.70074 -30.7904 -0.514512
5706 2 7.97933 -32.5165 -2.71308
5739 2 9.82463 -30.5776 -2.60473
5704 2 9.6108 -32.3844 -0.583642
6805 2 11.422 -32.7182 -2.65912
6840 2 11.6089 -30.6962 -0.590166
230 2 15.3607 -30.7472 -0.393125
192 2 15.4045 -32.708 -2.52093
6838 2 13.5318 -30.8877 -2.51562
6803 2 13.4759 -32.683 -0.416379
265 2 -9.84097 -26.8691 -2.4499
229 2 -9.59583 -28.692 -0.518133
1364 2 -7.76715 -26.6887 -0.439801
1328 2 -7.632 -28.7682 -2.43555
1365 2 -7.87701 -25.0502 -2.68904
1326 2 -5.80156 -28.553 -0.601624
1362 2 -5.74448 -26.7148 -2.79883
2428 2 -3.89364 -28.8221 -2.78404
1363 2 -5.89601 -24.8845 -0.793872
5793 1 0.06445 -28.6527 -0.532785
2464 2 -3.73182 -26.6844 -0.870137
2426 2 -2.03203 -28.7786 -0.761927
2462 2 -1.991 -26.622 -2.91586
3573 2 0.0760223 -26.6651 -0.78514
3537 2 0.0118866 -28.6431 -2.69024
3535 2 1.93298 -28.7148 -0.555288
3571 2 2.05685 -26.7661 -2.74136
4674 2 3.93462 -24.9718 -2.32933
4638 2 4.07372 -28.6086 -2.43793
4673 2 4.06157 -26.9557 -0.489759
4671 2 6.08948 -26.8225 -2.67513
4636 2 5.9361 -28.757 -0.543314
5742 2 7.82048 -28.8793 -2.64899
4672 2 5.87816 -25.0289 -0.559321
6877 2 11.633 -25.0114 -2.5967
5777 2 9.63057 -25.0452 -0.564949
5779 2 7.92115 -24.9945 -2.64207
5778 2 7.87924 -26.9415 -0.689406
5776 2 9.82462 -26.975 -2.72285
5740 2 9.91272 -28.825 -0.594591
6876 2 11.6661 -26.8071 -0.630638
6841 2 11.9508 -28.8659 -2.5419
231 2 15.5204 -28.9145 -2.40591
267 2 15.4709 -26.8772 -0.256835
6839 2 13.5167 -28.7839 -0.422604
6874 2 13.5004 -26.8398 -2.41421
268 2 15.4212 -24.9855 -2.43366
47 2 -9.21624 -50.0327 1.54738
11 2 -9.63271 -51.85 3.39635
13 2 -11.3961 -52.0257 1.49169
12 2 -11.4384 -53.686 3.52085
1148 2 -7.34028 -50.2136 3.50384
1113 2 -7.47545 -52.2619 1.45718
1146 2 -5.71296 -50.2799 1.48226
1111 2 -5.75632 -52.3061 3.43709
2245 2 -3.97138 -50.046 3.54067
2209 2 -3.62038 -51.7924 1.72012
2207 2 -1.67515 -51.8015 3.49199
2206 2 -1.68951 -53.8259 1.35988
3317 2 2.01242 -53.8205 1.40969
3320 2 0.200886 -51.6689 1.67213
3355 2 0.32616 -50.0757 3.64309
3353 2 2.15408 -49.9809 1.57715
3318 2 2.07006 -51.9646 3.47833
4419 2 3.97086 -51.8878 1.46418
3319 2 0.276332 -53.8009 3.61858
4416 2 6.11551 -53.8485 1.48049
4456 2 4.13418 -49.9423 3.57948
4454 2 5.90876 -49.8648 1.45688
4417 2 5.87229 -51.8804 3.50218
5525 2 7.83324 -53.6579 3.40438
5526 2 7.98016 -51.7792 1.65321
5559 2 10.005 -50.0322 1.42362
5524 2 9.94137 -51.961 3.426
6625 2 11.8494 -51.9852 1.46458
49 2 15.5534 -50.0442 3.38352
6659 2 13.7532 -49.9785 1.54435
6661 2 11.7346 -50.1658 3.37856
6623 2 13.8449 -51.9601 3.5855
84 2 -9.39325 -46.2508 1.52967
86 2 -11.3126 -46.2424 3.53289
50 2 -11.2949 -48.1607 1.50077
1186 2 -7.46727 -46.2796 3.53289
1149 2 -7.42342 -48.0339 1.5163
1184 2 -5.69487 -46.1029 1.23218
1147 2 -5.79358 -48.0121 3.36629
2281 2 -3.79735 -46.0735 3.40306
2246 2 -3.839 -48.1406 1.47369
2243 2 -1.74403 -49.6863 1.73178
2279 2 -1.99128 -46.1821 1.59569
3393 2 0.166976 -46.166 3.31946
3356 2 0.205446 -47.9891 1.42422
3391 2 2.11235 -46.2207 1.44316
4492 2 3.88383 -46.2208 3.40715
3354 2 2.03853 -48.1824 3.66421
4457 2 4.03299 -48.1088 1.51217
4490 2 5.88185 -46.2479 1.51408
4455 2 5.97067 -47.99 3.65496
5562 2 7.99595 -48.3468 1.63417
5597 2 7.97031 -46.2551 3.42589
5595 2 9.90094 -46.4834 1.4007
5560 2 9.89063 -48.2205 3.62631
6698 2 11.6669 -46.2156 3.54421
6662 2 11.8393 -48.087 1.30939
6696 2 13.8154 -46.1641 1.57203
6660 2 13.5557 -48.2758 3.28435
120 2 -9.51764 -42.4142 1.51078
85 2 -9.41278 -44.2684 3.40482
87 2 -11.4531 -44.246 1.45876
122 2 -11.3735 -42.1668 3.27565
1187 2 -7.55349 -44.2304 1.52841
1222 2 -7.53472 -42.1233 3.49028
1220 2 -5.63395 -42.1789 1.4594
1185 2 -5.72172 -44.3174 3.50808
2320 2 -3.64643 -42.3419 3.32595
2282 2 -3.6936 -44.2491 1.4998
2318 2 -1.5877 -42.1542 1.60867
2280 2 -1.97968 -44.3005 3.52962
3394 2 -0.00559413 -44.3368 1.57838
3428 2 2.04063 -42.2295 1.49998
4493 2 3.76538 -44.2816 1.51688
3392 2 2.00036 -44.0141 3.39061
4530 2 4.32707 -42.2707 3.55261
4528 2 5.99403 -42.2963 1.64511
4491 2 6.0845 -44.2416 3.44854
5598 2 8.06987 -44.5135 1.55072
5635 2 8.08187 -42.3049 3.44958
5633 2 9.94216 -42.1443 1.37958
5596 2 10.036 -44.1627 3.3493
6735 2 11.8391 -42.1904 3.36999
6699 2 11.9377 -43.9951 1.31776
6733 2 13.6839 -42.1854 1.47669
6697 2 13.5245 -44.2484 3.66412
157 2 -9.38597 -38.4475 1.45661
121 2 -9.50154 -40.1217 3.42162
1223 2 -7.62648 -40.4314 1.36683
1258 2 -7.67166 -38.3082 3.38612
123 2 -11.363 -40.3935 1.28433
159 2 -11.3721 -38.3529 3.2235
1256 2 -5.59888 -38.3848 1.41781
1221 2 -5.62737 -40.2567 3.5541
2357 2 -3.79204 -38.2414 3.66632
2321 2 -3.63936 -40.4091 1.41478
2355 2 -1.8939 -38.3716 1.6158
3431 2 0.046125 -40.3317 1.54216
2319 2 -1.79967 -40.2558 3.60488
3467 2 0.102422 -38.3422 3.39618
3465 2 2.1689 -38.4699 1.57413
4531 2 3.87716 -40.3236 1.59254
4567 2 3.95424 -38.4105 3.49739
3429 2 2.04354 -40.4193 3.66223
4565 2 5.67626 -38.1008 1.40246
4529 2 6.07271 -40.3938 3.3628
5636 2 7.75072 -40.3709 1.34748
5672 2 7.98114 -38.4448 3.17949
5670 2 9.75898 -38.4105 1.48751
5634 2 9.77138 -40.1465 3.56439
6736 2 11.7131 -40.2133 1.65393
6772 2 11.7505 -38.239 3.38052
6770 2 13.648 -38.2276 1.35185
6734 2 13.7668 -40.21 3.33833
193 2 -9.54259 -34.4522 1.52514
158 2 -9.47154 -36.3 3.24081
195 2 -11.4589 -34.4581 3.28905
160 2 -11.391 -36.5748 1.36956
1259 2 -7.48354 -36.4396 1.35632
1295 2 -7.51906 -34.4804 3.5584
1293 2 -5.77466 -34.5625 1.46402
1257 2 -5.72365 -36.4098 3.59468
4688 1 -3.94254 -34.3316 1.676
2358 2 -3.77857 -36.3639 1.6683
2392 2 -1.86225 -34.6035 1.75341
2356 2 -1.54162 -36.3852 3.59672
3468 2 0.260916 -36.3388 1.50458
3501 2 1.971 -34.2929 1.3593
3466 2 2.05811 -36.2393 3.40757
4603 2 3.93281 -34.679 3.21881
4568 2 3.81623 -36.5795 1.47343
4601 2 5.74754 -34.5879 1.28102
4566 2 5.85889 -36.0728 3.33425
5673 2 7.53576 -36.4981 1.32317
5709 2 7.73599 -34.6091 3.52825
5707 2 9.60273 -34.69 1.41707
5671 2 9.79341 -36.4044 3.4382
6773 2 11.5363 -36.494 1.4008
6808 2 11.6632 -34.6206 3.13642
6806 2 13.5956 -34.5832 1.41741
6771 2 13.6101 -36.4941 3.46184
232 2 -9.6166 -30.6726 1.58386
194 2 -9.35193 -32.6316 3.47187
234 2 -11.3382 -30.8655 3.29232
1296 2 -7.69356 -32.4771 1.51074
1331 2 -7.45531 -30.7235 3.45161
1329 2 -5.67369 -30.3483 1.53836
1294 2 -5.62965 -32.6044 3.62923
3740 1 -5.76788 -30.9038 3.51224
2431 2 -3.8038 -30.5411 3.48037
2395 2 -4.03734 -32.6188 1.43447
2429 2 -2.00362 -30.7282 1.50506
2393 2 -1.88973 -32.4816 3.45745
3504 2 -0.0907034 -32.683 1.36884
3538 2 1.80586 -30.5736 1.26979
3502 2 2.08305 -32.8067 3.59837
3540 2 0.184349 -30.719 3.20729
4641 2 3.55981 -30.6663 3.32328
4604 2 3.91437 -32.4786 1.45359
4639 2 5.80425 -30.7417 1.66438
4602 2 5.81046 -32.7144 3.27698
5710 2 7.68388 -32.6463 1.42319
5745 2 7.67576 -30.6879 3.34312
5743 2 9.75933 -30.5872 1.33449
5708 2 9.6031 -32.6418 3.34634
6809 2 11.6601 -32.5034 1.75041
6844 2 11.4673 -30.5751 3.55013
196 2 15.5094 -32.6222 1.42474
6842 2 13.4684 -30.78 1.46144
6807 2 13.6185 -32.5691 3.58154
270 2 -9.72055 -26.8909 1.65941
233 2 -9.4585 -28.6828 3.5158
1332 2 -7.64433 -28.7552 1.50135
271 2 -9.8966 -25.0572 3.41164
1369 2 -7.66818 -25.0435 1.4492
1368 2 -7.54533 -26.8976 3.47418
1330 2 -5.76063 -28.7209 3.50699
1366 2 -5.78824 -26.841 1.28706
2468 2 -3.74071 -26.6336 3.25829
2432 2 -3.56289 -28.4994 1.62757
2430 2 -1.73159 -28.7148 3.40672
2466 2 -1.91257 -26.5162 1.12152
3577 2 -0.058934 -26.5375 3.45311
3541 2 -0.0167129 -28.5302 1.27572
3575 2 2.15017 -26.7177 1.61478
3539 2 2.09696 -28.666 3.64272
4677 2 3.90941 -26.8104 3.57395
3578 2 0.20618 -24.8941 1.15682
4678 2 3.79172 -24.909 1.51845
4642 2 4.07398 -28.7148 1.59963
4675 2 5.92968 -26.8293 1.53181
4640 2 5.94453 -28.8032 3.43259
5782 2 7.83125 -26.7318 3.33613
5783 2 7.76943 -24.9089 1.46777
4676 2 5.8157 -24.9548 3.38074
5744 2 9.65004 -28.8363 3.38233
5746 2 7.93298 -28.6926 1.3642
5780 2 9.78079 -26.7402 1.35313
5781 2 10.0889 -25.0908 3.41655
6881 2 11.9508 -25.038 1.27279
6879 2 13.6816 -24.9691 3.40339
235 2 15.5209 -28.8735 1.6266
272 2 15.4718 -26.9564 3.47438
6845 2 11.8405 -28.7268 1.45438
6880 2 11.7771 -26.9915 3.51341
6878 2 13.7052 -26.8213 1.56317
6843 2 13.6344 -28.9567 3.54024
14 2 -9.81115 -53.7046 5.55064
52 2 -9.43057 -50.1434 5.56401
1117 2 -7.65916 -51.9519 5.5207
17 2 -11.4101 -51.77 5.47834
1150 2 -5.77684 -50.162 5.56672
2213 2 -3.9875 -51.9332 5.29527
2210 2 -1.78473 -53.7098 5.46217
2247 2 -1.927 -50.1158 5.30164
2212 2 -3.71216 -53.8005 7.35785
3324 2 0.313057 -51.8995 5.5613
3357 2 2.28167 -49.8824 5.52837
3321 2 2.02715 -53.8378 5.65124
4421 2 6.16139 -53.8246 5.68369
4424 2 3.99283 -52.0052 5.6197
4458 2 5.75391 -50.1373 5.62732
5527 2 9.71084 -53.8339 5.32698
5530 2 8.00423 -52.0388 5.54577
5561 2 7.97236 -50.0022 3.66992
5563 2 9.73775 -50.1139 5.68915
6629 2 11.5317 -52.0408 5.55119
6663 2 13.6226 -49.9705 5.43982
6626 2 13.8088 -53.8153 5.55685
48 2 -9.46905 -48.2185 3.70851
88 2 -9.51621 -46.1402 5.41129
1153 2 -7.77789 -48.1483 5.6031
1190 2 -7.65016 -46.306 7.301
90 2 -11.3641 -46.1865 7.2786
1188 2 -5.58351 -46.2856 5.4032
1151 2 -5.75221 -48.0864 7.23981
2244 2 -1.72878 -48.1793 3.74917
2250 2 -3.61145 -48.0324 5.55581
2284 2 -1.81903 -46.1428 5.46507
3360 2 0.0446511 -47.8892 5.51072
3395 2 2.26127 -46.024 5.28465
4461 2 4.15587 -47.965 5.61365
4494 2 6.03135 -46.0594 5.50916
5566 2 7.75709 -47.9122 5.57285
5599 2 9.89118 -46.0717 5.5689
6765 1 15.471 -46.1558 5.58834
6666 2 11.8498 -48.1282 5.34565
55 2 15.4435 -48.0199 5.28347
6700 2 13.5921 -46.0045 5.7748
124 2 -9.46296 -42.1491 5.41199
91 2 -11.359 -44.1233 5.32442
89 2 -9.55907 -44.245 7.30447
126 2 -11.4678 -42.2376 7.21364
1191 2 -7.55827 -44.4338 5.43751
1224 2 -5.88222 -42.1795 5.56048
2287 2 -3.77399 -44.2032 5.67489
3430 2 0.0736854 -42.2167 3.70095
2322 2 -1.92807 -42.4071 5.48868
3398 2 0.0597077 -44.1193 5.51754
3432 2 2.3454 -42.2634 5.49597
4497 2 4.11585 -44.0873 5.50739
4532 2 5.8373 -42.0702 5.54676
2470 1 11.55 -42.6818 5.79395
5602 2 7.95286 -44.1464 5.50304
5637 2 9.97572 -42.247 5.17179
6703 2 11.54 -44.3632 5.55985
5639 2 8.04552 -42.2371 7.31897
6737 2 13.6016 -42.2017 5.53963
161 2 -9.7105 -38.158 5.17912
127 2 -11.4664 -40.2438 5.23507
125 2 -9.43984 -40.3646 7.31483
1262 2 -7.64599 -38.5462 7.31622
1227 2 -7.58186 -40.3201 5.39743
1260 2 -5.61647 -38.3856 5.62426
2325 2 -3.66194 -40.3185 5.47633
2359 2 -1.93697 -38.2706 5.49225
3435 2 0.0927812 -40.2569 5.60595
3469 2 1.94683 -38.2402 5.51375
4535 2 3.88324 -40.2474 5.55247
4569 2 6.05209 -38.3711 5.22701
4533 2 6.28248 -40.1871 7.27977
5640 2 7.79179 -40.338 5.22059
5674 2 9.70905 -38.3956 5.42453
6740 2 11.6536 -40.2709 5.23989
6774 2 13.5941 -38.3747 5.4817
197 2 -9.57284 -34.507 5.35998
162 2 -9.66192 -36.4183 7.35772
199 2 -11.3746 -34.4822 7.36048
1299 2 -7.62514 -34.6452 7.22568
1263 2 -7.55096 -36.4072 5.46101
1297 2 -5.49953 -34.6611 5.51532
2394 2 -3.5958 -34.381 3.83977
2362 2 -3.61686 -36.3013 5.5745
2396 2 -1.62832 -34.2967 5.61285
3472 2 -0.0646209 -36.4149 5.5828
3503 2 0.145996 -34.4775 3.70489
3505 2 2.00335 -34.7611 5.51595
4572 2 4.12126 -36.6899 5.40692
4605 2 5.97784 -34.4459 5.55964
5677 2 7.92444 -36.4069 5.39002
5711 2 9.83982 -34.613 5.2905
6777 2 11.7114 -36.3959 5.4892
164 2 15.5391 -36.4574 5.44842
6810 2 13.4702 -34.5204 5.60958
236 2 -9.42247 -30.7365 5.30641
1300 2 -7.37482 -32.5857 5.63241
1333 2 -5.52629 -30.5508 5.47075
2399 2 -3.57054 -32.4251 5.4993
2433 2 -1.78464 -30.5327 5.43908
3508 2 0.0981998 -32.3859 5.35519
3542 2 2.18661 -30.5604 5.33175
4645 2 3.96575 -30.6726 7.31454
4608 2 3.98324 -32.8458 5.2812
3506 2 1.97972 -32.7539 7.28093
4643 2 5.72245 -30.8312 5.29775
5714 2 7.76046 -32.7207 5.28463
4606 2 5.95466 -32.4885 7.24774
5749 2 7.60149 -30.7004 7.33458
5747 2 9.4952 -30.5928 5.49644
6813 2 11.4859 -32.5523 5.35689
5712 2 9.69114 -32.6324 7.28669
200 2 15.4214 -32.6014 5.43378
6846 2 13.4557 -30.6916 5.54806
274 2 -9.51839 -27.0493 5.44367
239 2 -11.4664 -28.9323 5.38315
1373 2 -7.74708 -24.8943 5.44287
277 2 -11.3761 -25.1283 5.7311
1371 2 -5.74703 -24.9308 7.35741
1336 2 -7.59463 -28.8252 5.52632
1370 2 -5.69794 -26.6264 5.63396
2436 2 -3.64323 -28.677 5.45218
2471 2 -1.92057 -26.6726 5.39028
3545 2 0.0872264 -28.6576 5.39014
3579 2 2.06179 -26.6954 5.45132
3543 2 1.96201 -28.6195 7.35796
4683 2 3.84899 -24.8959 5.56756
5786 2 7.8248 -26.9987 7.30551
4646 2 4.02544 -28.7845 5.49627
4680 2 5.94954 -27.0138 5.38312
5750 2 7.75359 -28.7239 5.28914
6885 2 11.713 -25.0522 5.49986
5784 2 9.8837 -26.9547 5.55118
6849 2 11.6868 -28.8685 5.65074
5787 2 7.86174 -25.0093 5.40085
6882 2 13.795 -26.9566 5.57669
5788 1 13.8244 -25.4345 5.64375
18 2 -9.87608 -53.7636 9.46294
1152 2 -7.66189 -50.001 7.59392
15 2 -9.68545 -51.8907 7.6062
56 2 -9.77477 -49.8792 9.47661
1118 2 -5.59378 -53.8199 9.48369
1121 2 -7.55179 -52.1 9.27579
1115 2 -5.60858 -52.0461 7.52992
1154 2 -5.66832 -49.9682 9.41463
2249 2 -3.84865 -49.8437 7.36999
2217 2 -3.77031 -52.0149 9.6564
3359 2 -0.174326 -50.1 7.53835
2211 2 -2.17653 -51.8051 7.38548
2251 2 -1.93054 -50.0145 9.42889
3328 2 0.00347588 -52.0579 9.41432
3323 2 0.139494 -53.8468 7.56313
3322 2 2.02949 -51.7341 7.56971
3361 2 1.81364 -50.1366 9.56944
4460 2 3.92074 -50.0448 7.80833
3325 2 2.14371 -53.7806 9.45102
4428 2 4.01137 -51.8404 9.66506
4422 2 6.06114 -51.8748 7.49375
4462 2 6.13177 -50.0857 9.56015
4423 2 3.98817 -53.7227 7.68385
5534 2 8.00768 -52.0037 9.72803
5565 2 7.87984 -49.9979 7.65091
5528 2 9.79424 -51.9956 7.63325
5567 2 9.65248 -50.0269 9.80747
6665 2 11.6181 -49.982 7.55386
6633 2 11.656 -51.6892 9.6545
5531 2 9.90821 -53.7997 9.59792
6630 2 13.5171 -53.7987 9.77129
54 2 15.367 -49.9261 7.37891
21 2 15.3239 -51.8705 9.53177
6627 2 13.4172 -51.9015 7.60863
6667 2 13.4035 -49.9189 9.67645
16 2 15.3697 -53.626 7.60775
53 2 -9.74644 -48.1328 7.47574
92 2 -9.60687 -46.2553 9.5491
1157 2 -7.69743 -48.2793 9.38366
1192 2 -5.80445 -46.1945 9.54502
2286 2 -3.80398 -46.2277 7.6649
2254 2 -3.76384 -47.9368 9.58261
2248 2 -1.7877 -47.9574 7.41513
2288 2 -1.76328 -46.0527 9.60837
3364 2 0.0777182 -48.1008 9.34637
3397 2 0.133397 -46.0353 7.47987
3358 2 1.92278 -48.1437 7.48678
3399 2 1.91156 -46.1503 9.45871
4496 2 3.89056 -46.2187 7.62025
4465 2 3.9875 -48.0105 9.34493
4459 2 5.9857 -48.0534 7.73374
4498 2 5.9532 -46.1055 9.49856
5601 2 7.89542 -46.2859 7.4163
5570 2 7.92118 -47.9103 9.50819
5564 2 9.772 -48.2794 7.50951
5603 2 9.85996 -46.0461 9.37731
6670 2 11.6118 -48.0187 9.48338
6702 2 11.6511 -46.3564 7.44315
6664 2 13.5949 -48.055 7.48186
59 2 15.3281 -48.0846 9.51353
6704 2 13.5883 -46.0069 9.40533
1268 1 -9.64061 -42.3552 7.62252
128 2 -9.53919 -42.2103 9.43238
1226 2 -7.63261 -42.3059 7.49854
95 2 -11.3488 -44.1191 9.27043
1195 2 -7.78869 -44.3846 9.46061
1189 2 -5.67722 -44.3372 7.44982
1228 2 -5.6165 -42.3654 9.31536
2291 2 -3.7581 -44.2451 9.55987
2324 2 -3.55465 -42.2389 7.38528
2285 2 -1.82166 -44.2574 7.46418
2326 2 -1.81239 -42.3695 9.60879
3434 2 0.0437999 -42.2732 7.45669
3402 2 0.212345 -44.1341 9.64716
3396 2 1.82706 -44.3238 7.3848
3436 2 1.89184 -42.2248 9.41214
4501 2 3.66737 -44.124 9.50558
4534 2 4.1636 -42.3892 7.58544
4495 2 5.98596 -44.3341 7.54597
4536 2 5.91037 -42.2615 9.33394
5606 2 7.70928 -44.0731 9.41899
5600 2 9.76748 -44.1622 7.53904
5641 2 9.74511 -42.2763 9.5677
6739 2 11.5721 -42.2078 7.43595
6707 2 11.7624 -44.2054 9.33947
6701 2 13.6941 -44.1476 7.47676
6741 2 13.4786 -42.2995 9.55102
163 2 -11.3899 -38.4705 7.39193
165 2 -9.44894 -38.3922 9.17506
1225 2 -5.57027 -40.1903 7.51404
1231 2 -7.6064 -40.3747 9.51452
1264 2 -5.64183 -38.2578 9.29568
2329 2 -3.88199 -40.3622 9.36849
2361 2 -3.45534 -38.4589 7.69495
2323 2 -1.71954 -40.4845 7.61298
2363 2 -1.76244 -38.3681 9.60967
3439 2 0.0186376 -40.371 9.80805
3471 2 -0.0283656 -38.3847 7.40932
3433 2 2.13632 -40.4564 7.5287
3473 2 2.13197 -38.5 9.18249
4539 2 3.9198 -40.2236 9.50215
4571 2 4.16735 -38.4302 7.49141
4573 2 5.96638 -38.4358 9.48103
5676 2 7.88916 -38.316 7.53981
5638 2 9.87525 -40.1704 7.44334
5644 2 7.88512 -40.4058 9.52703
5679 2 9.80923 -38.2977 9.38376
6776 2 11.8135 -38.5388 7.63529
6744 2 11.8345 -40.2572 9.639
131 2 15.4545 -40.4529 9.39826
6738 2 13.6419 -40.2908 7.42554
6778 2 13.5671 -38.3105 9.44386
201 2 -9.53262 -34.3956 9.43145
168 2 -11.3468 -36.5109 9.31052
1267 2 -7.74933 -36.4491 9.3335
1261 2 -5.52304 -36.6162 7.37049
1301 2 -5.80172 -34.5034 9.34303
2366 2 -3.8061 -36.402 9.42141
2398 2 -3.58474 -34.4773 7.6124
2360 2 -1.85884 -36.4603 7.52973
2400 2 -1.7743 -34.3534 9.43316
3476 2 0.0462295 -36.498 9.41244