LAMMPS data file via write_data, version 29 Aug 2024, timestep = 50000, units = metal

7711 atoms
2 atom types

-11.470696736749312 15.57885073224919 xlo xhi
-53.85516200940195 62.07147000040154 ylo yhi
-14.800518080930104 36.90867207607127 zlo zhi
-8.465600277178498e-15 3.7760894709293605e-15 3.7760894709293605e-15 xy xz yz

Masses

1 1.01
2 106.42

Atoms # atomic

3 2 -9.36707345382973 -51.81950997093222 -4.584826783462642 0 0 0
39 2 -9.171791282305934 -49.86077278328695 -6.470681634400279 0 0 0
1140 2 -7.390680653191656 -49.94883474547817 -4.496323195206955 0 0 0
1105 2 -7.515363708776039 -52.089384494609156 -6.403563605157345 0 0 0
1103 2 -5.521451712613331 -51.9826943279775 -4.763830967966822 0 0 0
1138 2 -5.398375542709848 -49.83051045141676 -6.484421892042629 0 0 0
2237 2 -3.642661716769201 -49.930601524062915 -4.658052209906355 0 0 0
2201 2 -3.4559163201362946 -51.652541638980246 -6.701973379598879 0 0 0
6616 2 11.506125187071953 -53.84559702584332 -4.36895377030491 0 0 0
264 2 -11.411278557522502 -25.020963040265528 -6.90172328141857 0 0 0
2199 2 -1.7561902083967151 -51.96668038984764 -4.8523249141209455 0 0 0
2235 2 -1.542578809618325 -49.7160977891884 -6.515421472657486 0 0 0
3312 2 0.3000669533555804 -51.69753016802241 -6.639479213590093 0 0 0
3347 2 0.14623314130609977 -50.111238215754305 -4.654684207845399 0 0 0
3310 2 2.089571354875744 -52.04048197086775 -4.289458707968397 0 0 0
3345 2 2.2538411856276124 -49.908856463909125 -6.200556043793291 0 0 0
4448 2 4.154226269189655 -50.0373947271403 -4.434300517443024 0 0 0
4411 2 3.988464150855716 -52.16383724707485 -6.36052299696307 0 0 0
4409 2 5.927146258354492 -52.20250212541037 -4.257690846004199 0 0 0
4446 2 5.79177280962068 -50.13776708184848 -6.189481090146677 0 0 0
5553 2 7.62508946657063 -50.1789686341812 -4.510934857888042 0 0 0
5518 2 8.061925490985795 -52.19867066785394 -6.421778990288759 0 0 0
5516 2 9.94116014765356 -51.74213106301196 -4.488592713748099 0 0 0
5551 2 9.877951319767897 -50.07376650859982 -6.351648753580989 0 0 0
6617 2 11.772548108225282 -51.957169824480715 -6.564673911629779 0 0 0
6653 2 11.894570011212606 -50.05698303399089 -4.648680393325755 0 0 0
6906 1 5.92438560265512 -24.96787155247949 -6.3343214117769335 0 0 0
5 2 -11.350722880824033 -51.63630580068071 -6.5824295784156615 0 0 0
6630 2 13.517140783952081 -53.798699229328506 9.771286911580937 0 0 0
41 2 -11.26690219393943 -50.17598547520861 -4.44812618636781 0 0 0
6615 2 13.827657684870166 -52.10363991978341 -4.676213336047569 0 0 0
6651 2 13.539901426519142 -50.114044578914914 -6.471345269774896 0 0 0
2210 2 -1.784731045836784 -53.709832731147614 5.462173981420704 0 0 0
5527 2 9.710838713050636 -53.83389051725489 5.3269846127384195 0 0 0
76 2 -8.890601832066787 -46.42158997339281 -6.516648298182377 0 0 0
40 2 -9.45728514299997 -48.129029259985536 -4.493978196462324 0 0 0
1178 2 -7.5414807883868935 -46.25876552779572 -4.444754239393739 0 0 0
5661 1 -9.282864728246086 -48.03051700250039 -6.317912821376694 1 0 0
78 2 -11.21256555099 -46.087299589699136 -4.579878977510738 0 0 0
1141 2 -7.329016521934198 -48.22876489292685 -6.499562702399421 0 0 0
42 2 -11.132414214016318 -47.988534694930266 -6.333898271503347 0 0 0
7609 1 -3.834206075217839 -49.82146592434404 -6.523675391837397 0 1 0
1176 2 -5.5545230177959155 -46.02975071609728 -6.362509567068759 0 0 0
1139 2 -5.526632975639196 -48.1111358140204 -4.611182446903465 0 0 0
2238 2 -3.6504136761084505 -47.9985201263107 -6.450878773015812 0 0 0
2273 2 -3.6810745104108626 -46.20312625404654 -4.361174671643678 0 0 0
2271 2 -1.7672627613808523 -46.15184843620032 -6.094095827133778 0 0 0
2236 2 -1.761222854179426 -48.15927679347289 -4.505067372354517 0 0 0
3348 2 0.5051558444729878 -47.74788145438178 -6.539422448321856 0 0 0
3385 2 0.2892129795576217 -46.12760712242258 -4.42398573757306 0 0 0
5628 1 2.346035511378931 -47.51955140667291 -6.235034195229076 1 0 0
3383 2 2.2976386425625925 -45.8951120647822 -6.476946316951109 0 0 0
3346 2 2.040398015572263 -48.04966119728368 -4.208722341081432 0 0 0
4449 2 3.848932673749074 -47.93006472399706 -6.257893495032455 0 0 0
4484 2 4.2852539511737575 -46.150377180626705 -4.2118534854900345 0 0 0
4482 2 6.039272111805653 -46.30182705787311 -6.386132753462045 0 0 0
4447 2 5.9742804583070725 -48.24285308486212 -4.27260847305649 0 0 0
5554 2 8.045831672755535 -48.22003202449176 -6.496124008759892 0 0 0
4518 1 8.086171001154005 -46.431831103777995 -6.33454252645998 0 0 0
5589 2 7.847678486000101 -46.320818140896975 -4.574217020125268 0 0 0
5587 2 9.733804528920095 -46.09846449637051 -6.303888940774029 0 0 0
5552 2 9.778382344559967 -48.166195647025745 -4.5889272382048905 0 0 0
6690 2 11.671215538042874 -46.10385728616056 -4.508136562281827 0 0 0
6654 2 11.90238711865741 -48.09343154092041 -6.631498653516029 0 0 0
3276 1 12.09128641345904 -49.460398806168584 -6.223533389934753 0 1 0
6688 2 13.880754508667179 -45.81557927595955 -6.325603675007239 0 0 0
6652 2 13.772098719540965 -48.04621209743238 -4.652707293192478 0 0 0
112 2 -9.74190392458464 -42.1480256760111 -6.059734077280454 0 0 0
77 2 -9.175064552225697 -44.355812075291574 -4.608413964406575 0 0 0
1214 2 -7.4040143300813375 -42.38746173481447 -4.391982607948752 0 0 0
51 1 -7.241897142410027 -42.21395761186798 -6.128722239907502 0 0 0
1179 2 -7.708065766554071 -43.880630632467785 -6.430772939278334 0 0 0
1212 2 -5.606721982219814 -42.33398205212228 -6.409672287873253 0 0 0
1177 2 -5.532526170257334 -44.255634007943605 -4.370023942951932 0 0 0
2274 2 -3.6828984626801455 -44.120544137264865 -6.280068277365562 0 0 0
2312 2 -3.702865106531755 -42.19424175489469 -4.535585719453033 0 0 0
2310 2 -1.9376068633973134 -42.19601117641756 -6.26881087716932 0 0 0
2272 2 -1.6206901776580498 -44.18574389291106 -4.253532886346432 0 0 0
3422 2 0.0614923960267344 -42.21347665483893 -4.53269325671569 0 0 0
3386 2 -0.05935590257582035 -43.927265743280756 -6.445449954416788 0 0 0
205 1 -0.37119046724331106 -42.246529389848 -6.432871525382312 0 0 0
3420 2 2.310695138470111 -42.284795731877 -6.281571510286786 0 0 0
3384 2 2.3396399423454177 -44.118087643233764 -4.293635887523664 0 0 0
4485 2 4.464582896374949 -44.209593042327455 -6.022162846959922 0 0 0
4522 2 4.314155781191527 -42.039729894974336 -4.559364227021331 0 0 0
4520 2 6.0903124288775725 -42.1104637528831 -6.574193464751752 0 0 0
4483 2 6.080465475015911 -44.13670834105156 -4.148556925708215 0 0 0
5626 2 7.873383047957349 -42.256458437945874 -4.322676071403828 0 0 0
5590 2 7.984794561348108 -44.35388899699687 -6.272496353474954 0 0 0
5624 2 10.082738748076848 -42.39652037311962 -6.282906744542302 0 0 0
5588 2 9.83428392982127 -44.42447428093307 -4.273513499378677 0 0 0
6691 2 11.720348766094817 -44.352544133788655 -6.284886087892273 0 0 0
4519 1 11.800562088711162 -42.68954107603487 -6.169807991208577 0 0 0
6727 2 11.863390849703494 -42.43185362575654 -4.345180438558615 0 0 0
79 2 -11.3354130046148 -44.07566708444824 -6.31391348449646 0 0 0
114 2 15.247217781902703 -42.32238719240838 -4.503487208113413 -1 0 0
6725 2 13.430944511037909 -42.46075429153161 -6.416945521738224 0 0 0
6689 2 13.698990301576012 -44.47198147156197 -4.39560822896485 0 0 0
149 2 -9.823682091986866 -38.63769840815672 -6.747862716827503 0 0 0
113 2 -9.715031742943264 -40.24960665571085 -4.35148394143995 0 0 0
115 2 15.215966257174996 -40.03617038720782 -6.747566981234907 -1 0 0
1250 2 -7.744055709638918 -38.4055736242628 -4.587604896019237 0 0 0
151 2 15.461804972302785 -38.44554270451624 -4.442127819205865 -1 0 0
148 1 -11.298866950118232 -38.58547184896322 -6.673555806486022 0 0 0
1215 2 -7.6664202229422695 -40.436560310247955 -6.28083616427141 0 0 0
1248 2 -5.830027347257299 -38.23781980133876 -6.569180566914376 0 0 0
1213 2 -5.771972109897059 -40.203687328105865 -4.539088848558347 0 0 0
2349 2 -3.4057461900200803 -38.25348217035342 -4.620785257002332 0 0 0
2313 2 -3.842621321845975 -40.26124853782443 -6.220848405229141 0 0 0
2347 2 -1.197976933774596 -38.332506475927744 -6.16144308472958 0 0 0
2311 2 -1.7161064015426977 -40.27271598238806 -4.469647994442884 0 0 0
3423 2 0.11951599157544202 -40.5763095310675 -6.5407085417489075 0 0 0
3459 2 0.24286419516960578 -38.449724095880896 -4.2700639319881635 0 0 0
3457 2 2.028453381977604 -38.53113653190062 -6.24829647759054 0 0 0
3421 2 2.254717245221528 -40.325553962164925 -4.477331449777656 0 0 0
4523 2 3.958727942689773 -40.038114885136245 -6.6248426467465915 0 0 0
4559 2 3.922409131944125 -38.25574686556703 -4.471666252362784 0 0 0
2309 1 6.1592550719261485 -40.33711847490645 -6.424212616093198 0 0 0
4557 2 5.91812601871885 -38.55293265473111 -6.415835375504892 0 0 0
4521 2 5.962549189991632 -40.18824779627527 -4.5683008641476786 0 0 0
5627 2 7.763975737434523 -40.42458200430659 -6.332986902662103 0 0 0
5664 2 7.838086605869057 -38.442791249092274 -4.490880863114758 0 0 0
5662 2 9.79358277779325 -38.397135372611785 -6.316669389868444 0 0 0
5625 2 10.017976402083404 -40.36087245682804 -4.407914753408068 0 0 0
6728 2 11.83986493087531 -40.426415618482295 -6.478316200232413 0 0 0
6763 2 11.9197457551925 -38.17676674963866 -4.382197633477647 0 0 0
6761 2 13.782305013926516 -37.8844081558226 -6.632384742367686 0 0 0
6726 2 13.666774935040328 -40.25301043771565 -4.513626628652632 0 0 0
185 2 -9.287221316493095 -34.27920608195332 -6.348309551566299 0 0 0
150 2 -9.527605019413024 -36.468941950071965 -4.556428274878517 0 0 0
1251 2 -7.6523405803673885 -36.550154669227815 -6.427496360275005 0 0 0
1287 2 -7.450188083193708 -34.76576577387108 -4.392695702747165 0 0 0
187 2 15.519072936469398 -34.61627164631512 -4.613443841751867 -1 0 0
152 2 -11.344947183717235 -36.44232530947892 -6.411347096732145 0 0 0
1285 2 -5.749011953945048 -34.647552739108036 -6.4377074902958284 0 0 0
1249 2 -5.399995532871845 -36.46299794894943 -4.539023754788595 0 0 0
2350 2 -3.577267470827314 -36.17553641217643 -6.596171774720842 0 0 0
2385 2 -3.8411865789814783 -34.48787598248168 -4.568882933490329 0 0 0
2383 2 -1.393352357088311 -34.571314190157494 -6.815349496349785 0 0 0
2348 2 -1.6114393911079663 -36.11944831107624 -4.749413194336835 0 0 0
3460 2 0.37320221268783094 -36.30117459045304 -6.295733396493649 0 0 0
1361 1 0.35879081053344386 -34.316339938593174 -6.575338908043407 0 0 0
3495 2 0.34902964241022616 -34.446241655224426 -4.487891494723275 0 0 0
3493 2 2.31473645545082 -34.49620089395451 -6.65385718410078 0 0 0
3458 2 2.324808630783801 -36.35402882622515 -4.233170056127413 0 0 0
4560 2 3.8638628986873105 -36.49545399686656 -6.458356181843637 0 0 0
4595 2 4.040635207870572 -34.45410561948951 -4.403006052157581 0 0 0
4593 2 5.761667663979983 -34.67687514076064 -6.399020145554414 0 0 0
4558 2 5.88262193386471 -36.52810341621547 -4.65240193518212 0 0 0
5701 2 7.887295248649158 -34.57019549833774 -4.761799401055093 0 0 0
5665 2 7.716119571609516 -36.464575035974164 -6.426482708429402 0 0 0
5699 2 9.826209493815595 -34.62753537938828 -6.667656919087991 0 0 0
5663 2 9.692994678863657 -36.45478857510088 -4.512298162265577 0 0 0
6764 2 11.566075084712024 -36.41333885389858 -6.213686878912121 0 0 0
6800 2 11.761435356745787 -34.475713661496705 -4.471747660532655 0 0 0
6798 2 13.542556503266892 -34.60268744112523 -6.588212772272354 0 0 0
6762 2 13.810227749796399 -36.49715387088705 -4.559427298604058 0 0 0
223 2 -9.263932149418359 -30.680641216680808 -6.469665477658133 0 0 0
186 2 -9.603861169788503 -32.65082703453059 -4.433535312818435 0 0 0
225 2 -11.288732173024938 -30.73822681487357 -4.567607052291292 0 0 0
1323 2 -7.752150333182362 -30.805668685883788 -4.41608910626485 0 0 0
1288 2 -7.5842987919296085 -32.62617635428325 -6.344863503064461 0 0 0
2346 1 -5.893870293925005 -29.1639682587399 -6.581700759104057 0 0 0
1321 2 -5.5932772706603275 -30.91578829206837 -6.573785227131954 0 0 0
1286 2 -5.74844926405168 -32.757945793594544 -4.630950530028908 0 0 0
2423 2 -3.8194075910877396 -30.721798498928354 -4.6964731237278405 0 0 0
2386 2 -3.6852892262690613 -32.63681245685879 -6.395529723561097 0 0 0
2421 2 -1.7876100481011807 -30.590533144644613 -6.584512237151225 0 0 0
2384 2 -1.6628405284493315 -32.715981669840914 -4.757967445326568 0 0 0
3496 2 0.1721812007749186 -32.65047116798367 -6.584316601896496 0 0 0
3532 2 0.17972516704381647 -30.677035343553072 -4.4401665576288 0 0 0
5678 1 0.08930748971631353 -30.297131318468914 -6.1412914541815065 0 0 0
3530 2 2.0627275771568563 -30.83319653446782 -6.652568797571467 0 0 0
3494 2 2.1083951611176612 -32.53587125404697 -4.372815466145973 0 0 0
3533 2 0.22353754367432543 -28.9983884658455 -6.76283739298179 0 0 0
4633 2 4.035863057957199 -30.76641211198761 -4.522572349571433 0 0 0
4596 2 4.260852147958891 -32.48909613772821 -6.327818458319843 0 0 0
4631 2 6.119390763303615 -30.693305672088286 -6.446299625533296 0 0 0
4594 2 5.977845573807381 -32.59929613992611 -4.663582944994045 0 0 0
5737 2 7.930258293921744 -30.776184490815695 -4.613455100479367 0 0 0
5702 2 7.817070033145773 -32.72189081492509 -6.505397987954259 0 0 0
5735 2 9.754498083254516 -30.812938521870816 -6.534782165106707 0 0 0
5700 2 9.848825803182455 -32.713336070248644 -4.6930026764004324 0 0 0
6836 2 11.694744612862008 -30.796597439389707 -4.790410348252198 0 0 0
6801 2 11.78999007806006 -32.68012013128352 -6.6821133248520095 0 0 0
227 1 11.54866933206325 -30.656317131219822 -6.490270308290681 -1 0 0
188 2 15.497108242498522 -32.68401819037189 -6.455192213890967 -1 0 0
6834 2 13.715941395276365 -30.64671890078316 -6.546238282270451 0 0 0
6799 2 13.719468672586077 -32.68838365185948 -4.581644202089059 0 0 0
224 2 -9.617615909309823 -28.7646915723708 -4.464151591079482 0 0 0
261 2 -9.429638153385152 -27.07491308060533 -6.59875873910135 0 0 0
1324 2 -7.575378956498759 -28.87390290700326 -6.6120846567214855 0 0 0
263 2 15.339344754756384 -27.001848912688185 -4.306319952892899 -1 0 0
1377 2 -7.613522641014306 -25.084528705723418 9.344966724176182 0 0 0
2200 2 -3.698432175578886 -53.80373926896054 -4.79669626872902 0 0 0
1322 2 -6.017809997124628 -28.805559811463077 -4.685729828957577 0 0 0
1359 2 -7.959009273040584 -26.833114903444947 -4.439611338135345 0 0 0
1357 2 -6.0069598527208665 -26.819885802172873 -6.577366027175353 0 0 0
4416 2 6.115514466179386 -53.848488511565265 1.4804921659016927 0 0 0
2424 2 -3.8099868431798942 -28.71585834257594 -6.457317185985339 0 0 0
2460 2 -3.7562037463125932 -26.938133786131797 -4.7527668312015035 0 0 0
2422 2 -1.6893274611086593 -28.842353594004877 -4.45895671711444 0 0 0
2458 2 -1.8032969846516007 -27.035212796279634 -6.696201353723549 0 0 0
6618 2 13.69807094870834 -53.70126189231242 -2.612718376266909 0 0 0
1118 2 -5.593782242013471 -53.81986411531784 9.483687208554322 0 0 0
3311 2 0.23623573337967585 -53.7738967477459 -4.493199889922705 0 0 0
3569 2 0.0638235479962539 -26.672052168770485 -4.851476845813314 0 0 0
3567 2 1.9935479883915246 -26.837402456079417 -6.393912049822411 0 0 0
3531 2 1.9731289694191165 -28.767509827483 -4.719606678866832 0 0 0
4421 2 6.161387060459353 -53.82464457692833 5.683694919365707 0 0 0
2204 2 -3.665821907280093 -53.82444382179103 -0.6967831715967763 0 0 0
4669 2 4.031467574648785 -26.987812338181374 -4.405097369654866 0 0 0
4634 2 3.8723932490033786 -28.994551589365265 -6.549938123054913 0 0 0
4632 2 5.84337484016025 -28.73214256758556 -4.591057910751278 0 0 0
4667 2 5.537280926200507 -26.75326275180667 -6.5252175932525525 0 0 0
6614 2 13.915141035486974 -53.75193909851945 -6.684226135314486 0 0 0
243 2 15.496363150746843 -28.945716638296275 9.571002378814889 -1 0 0
5738 2 7.758425667704122 -28.86981629371703 -6.298473368385451 0 0 0
5774 2 7.94487496522237 -26.881438076229685 -4.738223430195475 0 0 0
5736 2 9.931777139074176 -28.95694283858405 -4.574380399508151 0 0 0
5772 2 9.815115049189993 -27.21886497179664 -6.69488160602546 0 0 0
6872 2 11.856714882808129 -26.997850798813253 -4.674707253041289 0 0 0
3317 2 2.0124201029987105 -53.82050458887603 1.4096853106982103 0 0 0
6837 2 11.791053275364751 -28.892277021350974 -6.506256708195638 0 0 0
226 2 -11.269806738695276 -28.95101328156699 -6.455107435762645 0 0 0
6835 2 13.761491692566919 -29.10443204025998 -4.544898130849249 0 0 0
6870 2 13.831650469606833 -27.024011720920534 -6.277073106061377 0 0 0
7 2 -9.396289676548971 -52.00216979843184 -0.41832000693666066 0 0 0
43 2 -9.211429616170141 -50.02370403615213 -2.307363369978145 0 0 0
1109 2 -7.514287277276748 -52.02728719432148 -2.5181278472005815 0 0 0
45 2 -11.342636946152453 -49.98494296365192 -0.5610004940956343 0 0 0
14 2 -9.811147640730967 -53.70457751991367 5.5506399173021235 0 0 0
3309 2 1.9406650784861892 -53.635154082003936 -6.47439812495262 0 0 0
3323 2 0.13949408286198484 -53.84681394219056 7.563133155828325 0 0 0
1144 2 -7.401143851389421 -50.161895601148395 -0.5330703497727315 0 0 0
1107 2 -5.553290070647608 -51.95701953523278 -0.5099718333303495 0 0 0
1142 2 -5.6268444056306555 -49.92169890158412 -2.5854312277222307 0 0 0
2241 2 -3.5750353355673408 -49.91238157359811 -0.45201908208219443 0 0 0
2205 2 -3.703515491764006 -51.83608840789001 -2.576894715296167 0 0 0
3313 2 2.060461301559899 -53.780649513861285 -2.4788163727352566 0 0 0
2203 2 -1.692561914736391 -51.97358427482392 -0.33920828524442176 0 0 0
2239 2 -1.6464534147072065 -50.07775106554274 -2.5427739157890343 0 0 0
3316 2 -0.04317783930744845 -52.06471407404679 -2.586457486755967 0 0 0
3351 2 -0.049499178646536635 -49.83751825576901 -0.4496486467917454 0 0 0
2461 2 -3.4362383777011853 -24.93906998088923 -6.6272145287878645 0 0 0
3314 2 1.7756466689167247 -51.86617400112127 -0.49491574344576095 0 0 0
3349 2 2.074046819125668 -50.10417622655061 -2.593598644331123 0 0 0
4452 2 3.775000008459317 -49.9181856595165 -0.3739667703241984 0 0 0
4415 2 3.9957155122713086 -51.73564920722222 -2.345290885668526 0 0 0
4413 2 6.1167817464204415 -51.83175389226097 -0.4105434797608972 0 0 0
4450 2 6.113705267371875 -50.07297541080523 -2.326012943875593 0 0 0
5522 2 8.075881985807436 -52.05152909480513 -2.4944395130146977 0 0 0
5557 2 7.991706616174087 -50.02302510038187 -0.5685080925716721 0 0 0
5520 2 9.994654328925984 -51.936928231215425 -0.2992739417602962 0 0 0
5555 2 9.923198289420993 -50.02445881266346 -2.4484842157522495 0 0 0
6657 2 11.963369432948047 -49.926063055519215 -0.5486159046803514 0 0 0
6621 2 11.752590306524125 -52.17060588546297 -2.3112800839287826 0 0 0
9 2 -11.164362966474892 -51.840623666949924 -2.364641807179661 0 0 0
6885 2 11.713042915425175 -25.0521937526455 5.499861787411707 0 0 0
6619 2 13.933257903803321 -51.81792928790681 -0.6226862155239185 0 0 0
6655 2 13.936139849422174 -50.05665168940132 -2.7856909827534966 0 0 0
80 2 -9.383332539882387 -46.01409394446615 -2.3517843774944307 0 0 0
44 2 -9.43717687200907 -48.21034511829312 -0.40092414770116785 0 0 0
1145 2 -7.598630780992294 -48.0485230170414 -2.4195482499072796 0 0 0
1182 2 -7.62794923420358 -46.33688292118175 -0.571772177803477 0 0 0
1180 2 -5.539583419216337 -46.240697756971684 -2.469370153905237 0 0 0
1143 2 -5.8373514089073115 -48.267832210399966 -0.49645825431427554 0 0 0
2277 2 -3.6968653580333237 -46.222913998484884 -0.4561598271406969 0 0 0
2242 2 -3.7145059156077336 -48.06916768141323 -2.4293347687532996 0 0 0
2275 2 -1.8209287458339531 -46.02206098203171 -2.6602837805556088 0 0 0
2240 2 -1.8550957052096244 -48.025477543702294 -0.39542815832697586 0 0 0
3352 2 0.03459107840842002 -48.14393553218892 -2.693483612072441 0 0 0
3389 2 0.10440752424078781 -46.06919921668705 -0.5832909885782391 0 0 0
3387 2 1.8293542510645668 -46.136854702062216 -2.466455324836732 0 0 0
3350 2 1.9543742836814761 -47.909490662563556 -0.6259190136754085 0 0 0
4453 2 3.995850368750906 -48.08934202621956 -2.4304601814265663 0 0 0
4488 2 3.71886739248918 -46.076898016971725 -0.5632555810425474 0 0 0
4486 2 5.982591703905227 -46.33126162003478 -2.3738663286211623 0 0 0
4451 2 5.878787880013489 -48.11051395206952 -0.39858657582676926 0 0 0
5593 2 7.860003495580498 -46.25510234224225 -0.3062282745428963 0 0 0
5558 2 8.030308696144806 -48.176620574543165 -2.5122338616217217 0 0 0
5591 2 9.843625731950342 -46.24903991180455 -2.2759251641382763 0 0 0
5556 2 9.89114092348507 -48.16968417416721 -0.5292656268343103 0 0 0
6658 2 11.845595486158038 -48.19298303160711 -2.5869895310808597 0 0 0
6694 2 12.136773159570835 -46.274143849749166 -0.4672548419751576 0 0 0
46 2 -11.196287153392426 -47.94371679492358 -2.614183326920224 0 0 0
82 2 -11.253984734932194 -46.08276405107717 -0.6229635017428906 0 0 0
6692 2 13.680577898200001 -46.420381171479995 -2.5787791672992424 0 0 0
6656 2 13.849978202865836 -48.14934146650906 -0.3990259442232822 0 0 0
116 2 -9.319997646876548 -42.33106171074657 -2.6499923314968656 0 0 0
81 2 -9.364421081682082 -44.18185169965164 -0.839031553782344 0 0 0
1218 2 -7.174038260292246 -42.29926205272286 -0.3638385024972077 0 0 0
118 2 -11.30466520537899 -42.40294751622027 -0.5454259094103545 0 0 0
83 2 15.563460375345985 -44.2077087953201 -2.7220163146489855 -1 0 0
1183 2 -7.371509510292355 -44.303416686149745 -2.4196633723566507 0 0 0
1216 2 -5.49701014405602 -42.15145653370561 -2.7955335155199417 0 0 0
1181 2 -5.487694852134714 -44.28971319753792 -0.5264389465757549 0 0 0
2316 2 -3.6839652812063006 -42.28080408736351 -0.43159569569744527 0 0 0
2278 2 -3.6288617808961536 -43.946354336264356 -2.3741930983618538 0 0 0
2314 2 -1.7839031207090787 -42.19038643433524 -2.5340052059441613 0 0 0
2276 2 -1.8758703700014188 -44.26530435952457 -0.5819729741975278 0 0 0
3390 2 0.12358123347019578 -44.07272046782517 -2.5193116820120465 0 0 0
3426 2 -0.05576566153098206 -42.20813664564771 -0.6044600808825484 0 0 0
3424 2 2.057825915613847 -42.1987798027253 -2.5103058464126775 0 0 0
3388 2 1.964944669462307 -43.982352183090434 -0.5283271648222136 0 0 0
4489 2 4.061234403160533 -44.18669984326641 -2.307171406590814 0 0 0
4526 2 3.9688319748499588 -42.346438060063804 -0.3420606186551708 0 0 0
4524 2 6.119236751947954 -42.14924352231571 -2.452488286741731 0 0 0
4487 2 5.996900218863411 -44.22926979977507 -0.37614252697329165 0 0 0
5594 2 7.857515171066963 -44.197372232499625 -2.4586312354895106 0 0 0
5631 2 7.92783705012055 -42.5524226415656 -0.3329316526793131 0 0 0
5629 2 9.852145631667986 -42.241044033886105 -2.4947772238696975 0 0 0
5592 2 9.958542754611832 -44.13036573067558 -0.5243603463570706 0 0 0
6695 2 11.750710679644415 -44.27048128288665 -2.2462911666888696 0 0 0
6731 2 11.611097038559295 -42.10038732365851 -0.46592873869744955 0 0 0
6729 2 13.604529905291601 -42.29261370670564 -2.1700784310671017 0 0 0
6693 2 13.874996221231536 -44.3880107923942 -0.690048596433247 0 0 0
153 2 -9.406572984745063 -38.4353663691128 -2.4971338850522073 0 0 0
117 2 -9.252020943912264 -40.29808591209677 -0.5585452013601975 0 0 0
155 2 -11.3271961323226 -38.411891468767756 -0.6211342174628582 0 0 0
1254 2 -7.5364125936145 -38.24624693909884 -0.5617312770696967 0 0 0
1219 2 -7.318391084931407 -40.2819655761656 -2.347337350751862 0 0 0
1252 2 -5.336989653827948 -38.20936749808085 -2.566554486623746 0 0 0
1217 2 -5.611872985273843 -40.305489534052214 -0.5031010347785776 0 0 0
2353 2 -3.708039786020147 -38.16440831151682 -0.32182703047187383 0 0 0
2317 2 -3.7094895458678874 -40.41469306878125 -2.4634183536053524 0 0 0
2351 2 -1.6998299215905703 -38.29890205054487 -2.534731250384767 0 0 0
2315 2 -1.9068012158242453 -40.092556240907 -0.5702996374439111 0 0 0
3427 2 0.13273155968616734 -40.283987104194466 -2.3835395190176176 0 0 0
3463 2 0.24003531028107794 -38.2103862250622 -0.5154984568580072 0 0 0
3461 2 2.1157072574814197 -38.273120678304 -2.3503710023821323 0 0 0
3425 2 2.112458781232789 -40.4484173218751 -0.4670071937056612 0 0 0
4563 2 4.014930715666992 -38.55396008927998 -0.6772331133366342 0 0 0
4527 2 4.026339515257387 -40.500093210611716 -2.4266042029380626 0 0 0
4561 2 5.869449918858825 -38.252663671974496 -2.5924697054048145 0 0 0
4525 2 5.814153652090189 -40.499357212781845 -0.29007777357444114 0 0 0
5632 2 7.840360692234855 -40.23897802786142 -2.4621480910170814 0 0 0
5668 2 7.526402405109865 -38.325660152574365 -0.46456296364746397 0 0 0
5666 2 9.89536866854373 -38.33517676321672 -2.5395015242920596 0 0 0
5630 2 9.654243960534137 -40.26807588206125 -0.6088437221698432 0 0 0
6732 2 11.940886631185341 -40.25117451475852 -2.4854399522322677 0 0 0
119 2 15.568866683361426 -40.34602937298639 -2.280387575850325 -1 0 0
6768 2 11.748208704092841 -38.34773288102954 -0.5848086620708547 0 0 0
6766 2 13.565890815785844 -38.38007246439635 -2.4177865044389883 0 0 0
6730 2 13.572018561753426 -40.11435125388195 -0.4807031657344918 0 0 0
189 2 -9.653540647124137 -34.45314051930714 -2.594455884246877 0 0 0
154 2 -9.424766953250352 -36.452678792127685 -0.5857579316494083 0 0 0
1255 2 -7.618796321904355 -36.44953196166114 -2.515996180796142 0 0 0
191 2 15.255478499489753 -34.526250244952244 -0.4601836111309027 -1 0 0
1291 2 -7.575875536734637 -34.36152409125514 -0.5292653739534147 0 0 0
1289 2 -5.773077300488373 -34.49823314508821 -2.4634775489734957 0 0 0
1253 2 -5.699564863474729 -36.31572047310094 -0.7452719044094488 0 0 0
2389 2 -3.7837578368761022 -34.49110601599914 -0.4571643787219254 0 0 0
2354 2 -3.5288828242547012 -36.16867223928989 -2.535126219959913 0 0 0
2387 2 -1.7002252751690907 -34.39287892512294 -2.5967618318270778 0 0 0
2352 2 -1.7740409883672807 -36.35392216903728 -0.5500748602508323 0 0 0
3464 2 0.06633845663318283 -36.5094259022143 -2.573061008608844 0 0 0
3499 2 0.03630998179994904 -34.46034405330781 -0.6040377737401899 0 0 0
3497 2 1.9040122063886606 -34.53601767928123 -2.4370566299706447 0 0 0
3462 2 2.0965375889806293 -36.40054604895657 -0.4471605991265465 0 0 0
4599 2 3.8689921108663636 -34.599457704598265 -0.6464320813490481 0 0 0
4564 2 4.103407149207616 -36.397767524504886 -2.5995794950354005 0 0 0
4597 2 6.004009294133111 -34.36345492615772 -2.5812139674569616 0 0 0
4562 2 5.754470543543759 -36.355365644978505 -0.6808719548034886 0 0 0
5669 2 7.804695036883336 -36.310248047985894 -2.7531270969639015 0 0 0
5705 2 7.762974812330588 -34.45926968693951 -0.5192284381510951 0 0 0
5703 2 9.757766523263436 -34.62169347306933 -2.440404411879687 0 0 0
5667 2 9.736945757630773 -36.57567016989525 -0.6903227922188421 0 0 0
6804 2 11.560824765819804 -34.37666329059674 -0.4915605060831709 0 0 0
6769 2 11.75624392541035 -36.35268460685296 -2.638236438981824 0 0 0
156 2 -11.402641020314192 -36.35150689087558 -2.477258611227697 0 0 0
6802 2 13.714861814107246 -34.58116411661366 -2.6062292198187884 0 0 0
6767 2 13.526220754626065 -36.383500635832945 -0.5848656061604235 0 0 0
228 2 -9.700858942440524 -30.57059043887721 -2.325924161774965 0 0 0
190 2 -9.597102138753254 -32.68433183480808 -0.6891114201552261 0 0 0
230 2 15.360737953061724 -30.7471557808918 -0.39312538387039464 -1 0 0
1327 2 -7.799985649796797 -30.687341943340886 -0.2423202038769194 0 0 0
1292 2 -7.557863396933752 -32.54821639060302 -2.628916209817653 0 0 0
1325 2 -5.76850931540886 -30.727432503217944 -2.4757846901504705 0 0 0
1290 2 -5.775299132453257 -32.367711497710204 -0.31892276217695814 0 0 0
2427 2 -3.931375760486416 -30.512288706331155 -0.34146310719139245 0 0 0
2390 2 -3.893380012008781 -32.7012957854856 -2.5721229046412875 0 0 0
2425 2 -1.9908964113083893 -30.882926003076317 -2.5915879524261687 0 0 0
2388 2 -2.0366029561429517 -32.78854080376338 -0.4032359306768402 0 0 0
3500 2 0.22920576066872833 -32.42311589465881 -2.3846815128583247 0 0 0
3536 2 -0.07186692269453054 -30.445653378852086 -0.6406641733710533 0 0 0
3534 2 2.126848863237269 -30.47241099306995 -2.5642325831808512 0 0 0
3498 2 2.1058813566781005 -32.476357387450506 -0.585850789880325 0 0 0
4637 2 4.002981976512281 -30.56359983732999 -0.5316523837355095 0 0 0
5793 1 0.06445002255515675 -28.6526515510028 -0.532785108103955 1 0 0
4600 2 3.9415484016204765 -32.7423442230043 -2.4541918526177398 0 0 0
4635 2 5.788573618542083 -30.67560502142824 -2.567767242998639 0 0 0
4598 2 5.754243315190619 -32.47988281958519 -0.45289338468322204 0 0 0
5741 2 7.700739758503579 -30.79039864028467 -0.5145122117862486 0 0 0
5706 2 7.979328601080189 -32.516482059611775 -2.7130756658088533 0 0 0
5739 2 9.824633040746116 -30.577645751809037 -2.6047298682816273 0 0 0
5704 2 9.610796034485373 -32.38438759554461 -0.5836416839897756 0 0 0
6805 2 11.422031109859352 -32.71821938066577 -2.659123563544229 0 0 0
192 2 15.404543112468295 -32.70796033808359 -2.52093297083377 -1 0 0
6840 2 11.608927156160528 -30.696158612685945 -0.5901662982012161 0 0 0
6838 2 13.531773849019748 -30.887720988283384 -2.515619125501274 0 0 0
6803 2 13.475906059350832 -32.68304591970629 -0.41637881447277253 0 0 0
265 2 -9.840973490500502 -26.869143560444986 -2.4498968866910436 0 0 0
229 2 -9.595828184769173 -28.692022320317378 -0.5181326644660248 0 0 0
1364 2 -7.767149782352577 -26.688674752110945 -0.43980116208410963 0 0 0
1328 2 -7.632003883965381 -28.76822100480528 -2.435554210710423 0 0 0
5754 2 7.735371490296766 -29.11333311551231 9.574012163860674 0 0 0
1326 2 -5.801558588728067 -28.55299901014327 -0.6016239806951077 0 0 0
1362 2 -5.744479482132719 -26.714842177473024 -2.798833580630156 0 0 0
6877 2 11.632974531137362 -25.011430267817104 -2.596704098414675 0 0 0
5777 2 9.630569549650014 -25.045165163935692 -0.5649492847303675 0 0 0
2428 2 -3.893638220805471 -28.822116208295 -2.7840372383756855 0 0 0
2464 2 -3.7318182429343034 -26.6844317518292 -0.8701366133848255 0 0 0
2426 2 -2.032026591603042 -28.778589833293445 -0.7619268451503518 0 0 0
2462 2 -1.9909954480149938 -26.622025233235416 -2.9158585091789893 0 0 0
5779 2 7.921148365077082 -24.99445700867988 -2.642068983030569 0 0 0
3573 2 0.07602231479620691 -26.66512512252404 -0.7851402578509528 0 0 0
3537 2 0.011886613928355771 -28.643148640773116 -2.6902403422527623 0 0 0
3535 2 1.9329765570147774 -28.714800018836392 -0.5552878794829726 0 0 0
3571 2 2.0568540608569794 -26.766102426401947 -2.7413588249920626 0 0 0
6620 2 11.940043315019624 -53.79276235596668 -0.4225881757164518 0 0 0