ITEM: TIMESTEP
0
ITEM: NUMBER OF ATOMS
7711
ITEM: BOX BOUNDS xy xz yz pp pp pp
-1.1430703945254924e+01 1.5538857940754797e+01 -8.4405674748997242e-15
-5.3683764331568774e+01 6.1900072322568370e+01 3.7649235644348551e-15
-1.4724065975299885e+01 3.6832219970620002e+01 3.7649235644348551e-15
ITEM: ATOMS id type x y z
3 2 -9.45116 -51.632 -4.82323
1 1 -8.92268 -51.7867 -6.48035
39 2 -9.32213 -50.0421 -6.97139
5 2 -11.3883 -51.8079 -6.44561
1140 2 -7.62807 -49.9439 -4.78111
41 2 -11.227 -49.7889 -4.69741
1105 2 -7.29374 -51.824 -6.83567
1103 2 -5.65249 -51.5634 -4.62646
1138 2 -5.6216 -49.5652 -6.58713
2201 2 -3.85105 -51.8424 -6.47139
2200 2 -3.85331 -53.5929 -4.55082
1102 2 -5.6809 -53.5475 -6.59389
1104 2 -7.55584 -53.467 -4.77118
2237 2 -3.57342 -49.8278 -4.49169
2199 2 -2.0272 -51.8434 -4.42532
2235 2 -1.92536 -49.9689 -6.33742
3312 2 0.0271881 -51.8861 -6.54533
2198 2 -1.98876 -53.6217 -6.70092
3347 2 0.140103 -49.9769 -4.67782
3310 2 2.04236 -51.6523 -4.45865
3345 2 2.34721 -50.0848 -6.48084
4410 2 3.93237 -53.484 -4.3002
3309 2 2.20552 -53.6325 -6.22882
4411 2 4.08798 -51.8586 -6.47195
5517 2 7.71988 -53.6481 -4.63947
4448 2 4.14411 -49.953 -4.55602
4409 2 5.96896 -51.7927 -4.53997
4446 2 6.12439 -49.6545 -6.53444
5518 2 7.76451 -51.7492 -6.48314
5553 2 7.73621 -49.7251 -4.67267
5516 2 9.52513 -51.7953 -4.54807
5551 2 9.67369 -49.8887 -6.53206
6653 2 11.6624 -49.9331 -4.47242
4518 1 8.01816 -49.6749 -6.45134
6614 2 13.5644 -53.605 -6.61816
6617 2 11.9362 -51.6938 -6.55635
6651 2 13.8348 -49.6735 -6.53462
6615 2 13.7013 -51.5911 -4.56622
4 2 15.5148 -53.6356 -4.69235
6616 2 11.7105 -53.4257 -4.58205
76 2 -9.35821 -46.0516 -6.67226
40 2 -9.56384 -47.929 -4.73303
1178 2 -7.65651 -45.989 -4.79009
1141 2 -7.72818 -48.0746 -6.51615
42 2 -11.2352 -47.7637 -6.58396
78 2 -11.368 -45.8967 -4.61945
1176 2 -5.52904 -45.9821 -6.59627
1139 2 -5.59845 -47.8707 -4.60737
2273 2 -3.87568 -45.9666 -4.39195
5628 1 -3.87282 -46.1181 -6.40974
2238 2 -3.62683 -47.7446 -6.57416
2271 2 -1.61281 -45.9515 -6.43243
2236 2 -1.9208 -47.7786 -4.63723
3385 2 0.169673 -46.2434 -4.68395
3348 2 0.383647 -48.121 -6.52705
3383 2 2.06885 -45.9739 -6.37875
3346 2 2.1326 -48.1348 -4.54113
4484 2 4.00692 -46.0335 -4.35629
4449 2 4.1017 -47.8073 -6.15002
4482 2 6.0295 -45.9092 -6.31587
4447 2 5.8812 -47.9894 -4.36282
5589 2 7.95046 -46.1741 -4.53774
5554 2 8.03546 -47.7946 -6.70817
5587 2 10.0339 -46.0903 -6.32298
5552 2 9.8299 -48.0699 -4.49929
6654 2 11.553 -48.1034 -6.54835
6690 2 11.7343 -45.9957 -4.50578
5623 1 13.748 -47.5506 -6.33638
6688 2 13.737 -46.0792 -6.55489
6652 2 13.7114 -47.9622 -4.53665
112 2 -9.48957 -42.1518 -6.69831
77 2 -9.58559 -43.9895 -4.59836
5661 1 -10.9682 -42.2003 -6.24134
79 2 -11.4017 -43.9278 -6.37361
1214 2 -7.55601 -42.1945 -4.57712
1179 2 -7.46455 -44.0361 -6.68027
1212 2 -5.6818 -42.2164 -6.26452
1177 2 -5.85596 -44.195 -4.69698
2312 2 -3.60259 -42.3524 -4.45795
2274 2 -3.66856 -44.0895 -6.45825
2310 2 -1.90484 -42.2237 -6.35095
2272 2 -1.87296 -44.3313 -4.41292
3386 2 0.0349993 -44.0172 -6.21466
3422 2 0.224658 -42.0334 -4.43667
3420 2 2.10718 -42.4181 -6.22445
3384 2 1.82841 -44.2567 -4.36377
4522 2 3.80846 -42.2132 -4.49036
4485 2 4.07495 -44.1203 -6.08804
4520 2 5.93013 -42.2577 -6.18416
4483 2 6.07099 -44.1678 -4.29416
5590 2 7.85491 -44.2902 -6.27982
5626 2 8.0487 -42.2173 -4.37505
5624 2 9.65532 -42.1407 -6.2604
5588 2 9.74017 -44.1266 -4.43543
114 2 15.4802 -42.0546 -4.54839
6691 2 11.6898 -44.0019 -6.3513
6727 2 11.7081 -42.2127 -4.76113
6725 2 13.5881 -41.9068 -6.59638
6689 2 13.5936 -44.0154 -4.80027
149 2 -9.65336 -38.2528 -6.58614
113 2 -9.65469 -40.1035 -4.6609
1250 2 -7.69124 -38.2487 -4.7111
1215 2 -7.55428 -40.1995 -6.32461
1248 2 -5.65335 -38.5175 -6.6388
1213 2 -5.63134 -40.2334 -4.47609
2313 2 -3.76356 -40.3603 -6.25189
2349 2 -3.80198 -38.1575 -4.58772
2309 1 -3.90447 -38.3746 -6.36079
2347 2 -1.75514 -38.3865 -6.62886
2311 2 -1.82964 -40.3295 -4.61273
3459 2 0.0547831 -38.1731 -4.56266
3423 2 0.168559 -40.1951 -6.47096
4519 1 0.28155 -38.4105 -6.33023
3457 2 2.16265 -38.2399 -6.50831
3421 2 1.98203 -40.1497 -4.35933
4523 2 3.95689 -40.5175 -6.31087
4559 2 4.0782 -38.428 -4.54255
4557 2 5.82709 -38.6067 -6.3841
4521 2 5.85682 -40.364 -4.38851
5627 2 7.68877 -40.3122 -6.57358
5664 2 7.83231 -38.4062 -4.66502
5662 2 9.81803 -38.3123 -6.55197
5625 2 9.80051 -40.1603 -4.68704
6763 2 11.6185 -38.2133 -4.61946
6728 2 11.6806 -40.0755 -6.48014
151 2 15.5283 -38.232 -4.73231
115 2 15.4521 -40.3702 -6.54646
6761 2 13.4793 -38.1794 -6.37851
6726 2 13.7173 -40.112 -4.61381
185 2 -9.52848 -33.9908 -6.52741
150 2 -9.48903 -36.1388 -4.87185
152 2 -11.3215 -36.2683 -6.54366
1287 2 -7.68715 -34.0904 -4.69857
148 1 -8.06129 -34.1956 -6.65246
1251 2 -7.51018 -36.264 -6.7417
1285 2 -5.74524 -34.4592 -6.68314
1249 2 -5.92335 -36.2354 -4.70837
2350 2 -3.73877 -36.4842 -6.49609
2385 2 -3.73629 -34.5175 -4.72772
2383 2 -1.74195 -34.5171 -6.52345
2348 2 -1.8452 -36.3556 -4.76658
3495 2 0.198895 -34.5131 -5.00033
3460 2 0.25818 -36.5628 -6.83205
3493 2 2.19223 -34.546 -6.67915
3458 2 2.08763 -36.3512 -4.85327
4595 2 4.01235 -34.5399 -4.81242
4560 2 4.14075 -36.2929 -6.54864
4593 2 5.9202 -34.6034 -6.5539
4558 2 5.89156 -36.4181 -4.63505
5665 2 7.73277 -36.6386 -6.60951
5701 2 7.99882 -34.6424 -4.68296
5699 2 9.61402 -34.626 -6.64969
5663 2 9.69232 -36.3868 -4.57845
6764 2 11.6738 -36.2323 -6.49976
6800 2 11.5824 -34.5402 -4.60983
187 2 15.5049 -34.3356 -4.78718
6798 2 13.6742 -34.6147 -6.81117
6762 2 13.6235 -36.3539 -4.7827
223 2 -9.57743 -30.4606 -6.45208
186 2 -9.66057 -32.3401 -4.55666
1323 2 -7.71706 -30.6642 -4.59154
1288 2 -7.53387 -32.5594 -6.83679
1321 2 -5.57365 -30.7607 -6.47856
1286 2 -5.67789 -32.5631 -4.54328
2423 2 -3.77371 -30.5485 -4.66753
2386 2 -3.82615 -32.6809 -6.662
2346 1 -3.61897 -30.6043 -6.46302
2421 2 -2.10435 -30.703 -6.64415
2384 2 -1.65248 -32.5112 -4.78894
3532 2 0.211713 -30.5625 -4.89145
3496 2 0.408201 -32.3869 -6.66617
3530 2 2.33894 -30.7681 -6.58699
3494 2 2.16335 -32.5922 -4.61673
4596 2 4.15774 -32.5731 -6.62653
4633 2 4.1082 -30.5869 -4.7735
3566 1 4.36058 -30.7096 -6.87527
4631 2 5.99751 -30.5842 -6.68603
4594 2 5.95353 -32.7593 -4.6787
5737 2 7.77271 -30.5806 -4.57126
5702 2 7.88235 -32.6425 -6.45858
5735 2 9.9556 -30.7582 -6.3762
5700 2 9.82907 -32.6071 -4.48959
6801 2 11.6146 -32.5965 -6.40946
225 2 15.436 -30.4686 -4.60361
227 1 11.9383 -30.4348 -6.15864
6836 2 11.8498 -30.577 -4.4852
188 2 15.4663 -32.2996 -6.61956
6834 2 13.5651 -30.5547 -6.45879
6799 2 13.6249 -32.6407 -4.75317
261 2 -9.5329 -26.6137 -6.40319
224 2 -9.55392 -28.5862 -4.43151
1359 2 -7.62369 -26.875 -4.58246
262 2 -9.5211 -24.8549 -4.35058
1324 2 -7.4824 -28.6947 -6.428
1322 2 -5.75527 -28.8832 -4.43154
1357 2 -5.81581 -26.6662 -6.34478
2460 2 -3.8386 -26.7186 -4.63857
2424 2 -3.81644 -28.7306 -6.88712
2458 2 -1.95751 -26.6206 -6.5451
2422 2 -2.04207 -28.6278 -4.80702
3569 2 0.121512 -26.8317 -4.96138
3570 2 0.0375521 -24.9504 -6.59474
3533 2 0.166951 -28.7249 -6.68118
3567 2 2.00917 -26.7278 -6.69384
3531 2 2.0037 -28.6159 -4.83863
4634 2 3.82922 -28.8373 -6.86233
4669 2 3.79728 -26.6104 -4.66694
4670 2 3.92013 -24.8203 -6.57851
4632 2 5.85622 -28.6089 -4.83056
4667 2 5.76387 -26.716 -6.45022
5738 2 7.6681 -28.7011 -6.67517
5774 2 7.71753 -26.6333 -4.58289
5772 2 9.45455 -26.8318 -6.47781
5736 2 9.38006 -28.5454 -4.6024
6837 2 11.5908 -28.7916 -6.34641
6872 2 11.6675 -26.7471 -4.70203
263 2 15.5328 -26.6308 -4.46372
226 2 15.4515 -28.7807 -6.46316
6870 2 13.8519 -26.7736 -6.5161
6835 2 13.6319 -28.4952 -4.44045
6873 2 11.7439 -24.9829 -6.34793
7 2 -9.48235 -52.0171 -0.389819
1144 2 -7.60645 -49.8321 -0.519564
43 2 -9.41588 -49.8488 -2.54288
45 2 -11.3182 -49.9236 -0.585936
9 2 -11.3058 -51.726 -2.52633
1109 2 -7.55913 -51.7507 -2.62329
1107 2 -5.72007 -51.6781 -0.537465
1142 2 -5.73052 -49.829 -2.34429
1106 2 -5.71261 -53.6408 -2.65147
2241 2 -3.70386 -49.8317 -0.493773
2205 2 -3.71586 -51.7577 -2.43074
2203 2 -1.77626 -51.8041 -0.60325
2239 2 -1.81038 -49.6268 -2.73242
3351 2 -0.119974 -49.6288 -0.530682
3316 2 0.118169 -51.6276 -2.61983
2202 2 -1.6574 -53.5989 -2.53692
3349 2 2.2808 -49.9354 -2.45401
3314 2 1.86729 -51.9354 -0.493806
3313 2 2.04776 -53.5961 -2.60317
4452 2 4.01877 -49.843 -0.479486
4415 2 4.31037 -51.8267 -2.36481
4450 2 5.95271 -49.8717 -2.52084
4413 2 5.99083 -51.8765 -0.354414
5557 2 7.7169 -49.9389 -0.483187
5522 2 7.74665 -51.9204 -2.54209
5555 2 9.84605 -49.8272 -2.64802
5520 2 9.64293 -51.8084 -0.647693
6657 2 11.6286 -49.9391 -0.636023
6621 2 11.6684 -51.83 -2.56949
6620 2 11.8573 -53.5118 -0.481548
6655 2 13.9496 -49.8448 -2.67883
6619 2 13.6597 -51.7078 -0.683619
6618 2 13.6358 -53.5882 -2.5307
80 2 -9.22024 -45.868 -2.6656
44 2 -9.28881 -47.7726 -0.870909
82 2 -11.3489 -46.094 -0.862571
46 2 -11.1638 -48.0125 -2.58664
1182 2 -7.56418 -46.0251 -0.494196
1145 2 -7.40575 -47.9509 -2.87364
1180 2 -5.7334 -45.9481 -2.55488
1143 2 -5.68634 -47.8898 -0.600893
2242 2 -3.84123 -48.0264 -2.52151
2277 2 -3.69996 -46.0027 -0.593733
2275 2 -1.79428 -46.1299 -2.45666
2240 2 -1.99753 -48.0169 -0.300823
3389 2 -0.00745324 -46.1934 -0.476527
3352 2 0.205319 -47.9989 -2.67603
3387 2 1.98287 -46.1484 -2.59277
3350 2 2.00972 -47.9352 -0.477087
4488 2 3.79435 -45.6995 -0.670591
4453 2 4.14707 -47.9134 -2.34766
4486 2 5.89731 -45.9018 -2.41224
4451 2 6.09993 -47.9126 -0.501258
5558 2 7.88825 -48.0575 -2.50627
5593 2 7.91411 -45.9099 -0.698551
5591 2 9.92909 -46.0319 -2.56179
5556 2 9.80721 -47.9659 -0.450312
6658 2 11.6228 -48.0733 -2.54191
6694 2 11.7195 -45.967 -0.718373
6692 2 13.6322 -46.1052 -2.69589
6656 2 13.6971 -48.0302 -0.487213
116 2 -9.50212 -42.2453 -2.52848
81 2 -9.66719 -44.0583 -0.638021
118 2 -11.354 -42.0682 -0.553874
1183 2 -7.59634 -43.9046 -2.64542
1218 2 -7.58706 -42.1726 -0.767734
1216 2 -5.72759 -42.2299 -2.64568
1181 2 -5.62617 -44.1763 -0.596512
2278 2 -3.87204 -44.1523 -2.54948
2316 2 -3.74736 -41.9832 -0.531852
2314 2 -1.804 -42.1587 -2.56169
2276 2 -1.87689 -44.0279 -0.758577
3390 2 0.0260627 -44.1485 -2.5265
3426 2 0.064343 -42.0561 -0.38495
3424 2 2.0532 -42.1692 -2.4415
3388 2 1.82802 -44.0377 -0.505134
4489 2 3.94921 -44.0996 -2.62791
4526 2 3.8494 -42.2396 -0.570104
4524 2 5.82364 -42.1127 -2.47042
4487 2 5.86043 -43.9892 -0.566702
5631 2 7.92628 -42.2279 -0.588554
5594 2 7.97698 -43.9878 -2.53679
5629 2 9.95238 -42.071 -2.60142
5592 2 10.0087 -43.8821 -0.693034
6695 2 11.9278 -44.0381 -2.77374
6731 2 11.9062 -42.2252 -0.514935
83 2 15.3152 -44.0166 -2.63879
6729 2 13.6246 -42.2145 -2.62254
6693 2 13.6848 -44.0485 -0.656364
153 2 -9.53563 -38.086 -2.71445
117 2 -9.38906 -40.1829 -0.751327
1219 2 -7.60212 -40.0456 -2.69851
119 2 -11.3944 -40.129 -2.64229
1254 2 -7.54413 -38.087 -0.509225
1252 2 -5.71053 -38.1079 -2.7982
1217 2 -5.77674 -40.1303 -0.816458
2353 2 -3.66172 -38.3301 -0.684428
2317 2 -3.68027 -40.3563 -2.55885
2351 2 -1.89017 -38.1219 -2.64099
2315 2 -1.77685 -40.1538 -0.572395
3463 2 0.0174053 -38.12 -0.599372
3427 2 0.00769789 -40.1618 -2.48853
3461 2 2.06969 -38.335 -2.5646
3425 2 1.96608 -40.3083 -0.511649
4527 2 3.93728 -40.2271 -2.32388
4563 2 3.87083 -38.2837 -0.580231
4561 2 5.79118 -38.1649 -2.79866
4525 2 5.79584 -40.0341 -0.670847
5632 2 7.77605 -40.202 -2.55564
5668 2 7.83629 -38.0788 -0.756655
5666 2 9.93632 -38.5149 -2.6206
5630 2 9.69044 -40.225 -0.433276
6768 2 11.6096 -38.3019 -0.64553
155 2 15.4404 -38.2305 -0.604445
6732 2 11.7578 -40.3918 -2.76677
6766 2 13.682 -38.1305 -2.79655
6730 2 13.7007 -40.1169 -0.677658
189 2 -9.50246 -34.4246 -2.67023
154 2 -9.68617 -36.3762 -0.713044
1255 2 -7.59272 -36.3176 -2.75512
1291 2 -7.54768 -34.4418 -0.794359
1289 2 -5.65467 -34.2208 -2.71618
1253 2 -5.55133 -36.2816 -0.694101
2389 2 -3.76891 -34.2705 -0.745582
2354 2 -3.88717 -36.136 -2.7055
2387 2 -1.81994 -34.4478 -2.89909
2352 2 -2.04611 -36.1697 -0.756699
3464 2 0.086482 -36.2329 -2.72968
3499 2 0.152889 -34.3261 -0.778977
3497 2 2.08067 -34.6298 -2.67743
3462 2 1.92413 -36.4187 -0.666865
4599 2 3.90946 -34.5316 -0.734897
4564 2 3.92326 -36.5516 -2.71065
4597 2 5.83293 -34.4743 -2.58331
4562 2 5.83977 -36.4186 -0.583368
5705 2 7.71035 -34.6546 -0.473558
5669 2 7.75692 -36.3758 -2.5796
5703 2 9.61661 -34.4208 -2.58276
5667 2 9.77077 -36.4247 -0.706136
6769 2 11.6124 -36.3744 -2.62908
6804 2 11.5451 -34.4194 -0.609643
191 2 15.5019 -34.3746 -0.532183
156 2 15.461 -36.176 -2.76608
6802 2 13.4709 -34.4825 -2.65898
6767 2 13.6101 -36.2149 -0.647362
228 2 -9.67929 -30.4688 -2.59078
190 2 -9.87256 -32.425 -0.780886
1327 2 -7.7432 -30.4927 -0.606141
1292 2 -7.8138 -32.4373 -2.67527
1325 2 -5.85806 -30.6436 -2.61286
1290 2 -5.85442 -32.3981 -0.694966
2427 2 -3.83084 -30.5993 -0.630344
2390 2 -3.72925 -32.3407 -2.76618
2425 2 -1.89999 -30.3536 -2.77949
2388 2 -1.53691 -32.4955 -1.09044
3536 2 0.113357 -30.4999 -0.831464
3500 2 0.2294 -32.5473 -2.91623
3534 2 1.96525 -30.4553 -2.95245
3498 2 1.81161 -32.4702 -1.03264
4637 2 3.76202 -30.7714 -0.813354
4600 2 4.04655 -32.4141 -2.90884
4635 2 5.89943 -30.5042 -2.87583
4598 2 5.84683 -32.6186 -0.673695
5706 2 7.64692 -32.6533 -2.76991
5741 2 7.70305 -30.6328 -0.928354
5739 2 9.57882 -30.5577 -2.77443
5704 2 9.58365 -32.3706 -0.651894
6805 2 11.5736 -32.4717 -2.48209
6840 2 11.7237 -30.5662 -0.745768
230 2 15.5022 -30.5223 -0.556771
192 2 15.4099 -32.6055 -2.78972
6838 2 13.6323 -30.5413 -2.58991
6803 2 13.4227 -32.3676 -0.646272
266 2 -9.49254 -24.9554 -0.564236
265 2 -9.60852 -26.6857 -2.59812
229 2 -9.62896 -28.6545 -0.421785
1328 2 -7.75743 -28.7286 -2.55421
1364 2 -7.74379 -26.82 -0.578251
267 2 -11.41 -26.777 -0.327062
1365 2 -7.60693 -24.8556 -2.38273
1362 2 -5.75321 -26.9087 -2.73627
1326 2 -5.55253 -28.7599 -0.433275
2428 2 -3.77469 -28.6106 -2.56553
1363 2 -5.58361 -24.8689 -0.590273
2465 2 -3.77806 -24.7887 -2.76913
2464 2 -3.69691 -26.7235 -0.655343
2462 2 -1.88262 -26.7159 -2.96422
2426 2 -1.86129 -28.6441 -0.749268
3573 2 0.065604 -26.7948 -0.852464
3537 2 0.0724311 -28.6154 -2.9068
2463 2 -1.91238 -25.0566 -0.725498
4674 2 3.85473 -24.8363 -2.7316
3571 2 2.06471 -26.726 -2.82389
3535 2 1.89824 -28.7975 -0.927287
4673 2 3.89236 -26.91 -0.731088
4638 2 3.93149 -28.7689 -2.80437
3572 2 1.94373 -24.9134 -0.593984
3574 2 0.150094 -24.9322 -2.64625
4671 2 5.83163 -26.7281 -2.7341
4636 2 5.87931 -28.6365 -0.740953
5778 2 7.66139 -26.7679 -0.518757
5742 2 7.54233 -28.5543 -2.68836
4672 2 5.81111 -24.8102 -0.799864
5776 2 9.49452 -26.8735 -2.60511
5740 2 9.57584 -28.9067 -0.502037
6841 2 11.6852 -28.6359 -2.76432
6876 2 11.3864 -26.7529 -0.883442
5777 2 9.74962 -24.8973 -0.830068
6877 2 11.4301 -24.887 -2.80978
231 2 15.4705 -28.613 -2.54625
6874 2 13.578 -26.7713 -2.54688
6839 2 13.3478 -28.5492 -0.528125
6875 2 13.5085 -24.8393 -0.77642
47 2 -9.42449 -50.036 1.37919
11 2 -9.38702 -51.673 3.38181
13 2 -11.3265 -51.6695 1.54938
1110 2 -5.53195 -53.6577 1.42439
1148 2 -7.57375 -49.8129 3.51461
1113 2 -7.46757 -51.9735 1.50964
1146 2 -5.62928 -49.9489 1.37791
1111 2 -5.65886 -51.7895 3.28926
2245 2 -3.77858 -49.9364 3.40842
3319 2 0.0414124 -53.5762 3.4253
2209 2 -3.67694 -51.8038 1.51457
2207 2 -1.66705 -51.7633 3.44054
2243 2 -1.88872 -49.7839 1.54321
3320 2 -0.024552 -51.7661 1.4298
2208 2 -3.58604 -53.5103 3.60486
3355 2 0.244799 -49.7582 3.35072
3353 2 1.92013 -49.7747 1.19373
3318 2 1.90807 -51.7073 3.46698
4419 2 3.85353 -51.7114 1.45608
4456 2 3.77754 -49.6986 3.40382
4454 2 5.86253 -49.94 1.73934
4417 2 6.11302 -51.7894 3.41778
5526 2 7.88842 -52.0265 1.46681
5561 2 8.00015 -49.7909 3.59507
5559 2 9.6522 -49.8493 1.35531
5524 2 9.59838 -51.9885 3.57617
6661 2 11.625 -49.8143 3.46963
6625 2 11.5045 -51.7121 1.43814
6622 2 13.6088 -53.4052 1.53649
49 2 15.4064 -49.8789 3.51973
6659 2 13.4855 -49.8557 1.51088
6623 2 13.3725 -51.7025 3.50602
7609 1 -8.76195 -46.6191 2.55185
84 2 -9.59226 -45.9516 1.34587
48 2 -9.62259 -48.1574 3.44343
86 2 -11.3284 -46.1317 3.48724
50 2 -11.3651 -48.1015 1.21713
1186 2 -7.65923 -46.0579 3.48005
1149 2 -7.50887 -47.9631 1.61235
1184 2 -5.6158 -46.1121 1.51407
1147 2 -5.47998 -48.082 3.48599
2246 2 -3.78321 -47.7741 1.55598
2281 2 -3.65132 -46.0193 3.515
2279 2 -1.81253 -45.9492 1.64629
2244 2 -1.73575 -47.994 3.35402
3356 2 0.0969207 -47.9114 1.55406
3391 2 2.04451 -46.0896 1.40296
3354 2 2.02883 -47.8529 3.39166
4492 2 3.96594 -46.015 3.42357
3393 2 0.134532 -45.8099 3.47255
4457 2 3.99939 -47.7871 1.14103
4490 2 6.01367 -45.9871 1.47526
4455 2 5.84848 -47.8093 3.42094
5597 2 7.79461 -45.9855 3.3306
5562 2 7.8346 -47.9354 1.44178
5595 2 9.76091 -45.8592 1.38705
5560 2 9.65058 -47.886 3.23375
6698 2 11.685 -45.8315 3.29356
6662 2 11.6389 -47.8436 1.43862
6696 2 13.8647 -45.9412 1.46118
6660 2 13.5599 -47.8672 3.2812
4420 1 13.9433 -47.9776 1.29068
120 2 -9.55929 -41.9537 1.29973
85 2 -9.43083 -44.0107 3.39803
87 2 -11.3007 -44.0508 1.39112
1187 2 -7.70025 -43.9131 1.31716
1222 2 -7.5944 -42.0194 3.45781
122 2 -11.2478 -42.1213 3.19679
1220 2 -5.83549 -42.1634 1.27026
1185 2 -5.77391 -43.9577 3.31
2320 2 -3.88947 -42.2017 3.20169
2282 2 -3.68947 -44.1658 1.37068
2318 2 -1.99023 -42.1296 1.5203
2280 2 -1.88673 -43.9514 3.4258
3394 2 0.11097 -44.0377 1.48288
3430 2 0.00978663 -42.0388 3.30625
3428 2 2.15157 -42.1136 1.43869
3392 2 2.1421 -44.0953 3.43789
4493 2 3.9642 -44.1959 1.52695
4530 2 4.00252 -42.1355 3.45089
4528 2 5.99546 -42.231 1.28078
4491 2 5.85363 -44.0511 3.46729
5635 2 7.73201 -42.0448 3.30236
5598 2 7.98759 -44.062 1.34382
5633 2 9.77957 -42.1383 1.37565
5596 2 9.77732 -44.0406 3.38726
6699 2 11.7689 -44.1153 1.38226
6735 2 11.7333 -42.2041 3.22687
6733 2 13.6471 -41.9529 1.2931
6697 2 13.7879 -43.967 3.38541
157 2 -9.48758 -38.2078 1.36939
1258 2 -7.62762 -38.2787 3.12014
121 2 -9.39414 -40.2137 3.27239
1223 2 -7.33795 -40.3469 1.33359
1256 2 -5.65718 -38.2555 1.28462
1221 2 -5.63292 -40.135 3.36172
2321 2 -3.78772 -40.179 1.48275
2357 2 -3.78142 -38.2803 3.22745
2355 2 -1.78558 -38.2733 1.45795
2319 2 -1.86948 -40.2067 3.36736
3431 2 0.0798482 -40.2371 1.49162
3467 2 0.150388 -38.127 3.31827
3465 2 2.05283 -38.3621 1.37173
3429 2 2.0035 -40.2686 3.2865
4567 2 3.72299 -38.2994 3.55553
4531 2 4.00175 -40.2076 1.30641
4565 2 5.90811 -38.1696 1.57794
4529 2 5.85218 -40.0799 3.37746
5672 2 7.78671 -38.352 3.49174
5636 2 7.67847 -40.1204 1.33402
5670 2 9.83468 -38.2894 1.45948
5634 2 9.82645 -40.1827 3.39652
6736 2 11.6564 -40.0717 1.40283
6772 2 11.9235 -38.2639 3.53122
159 2 15.5029 -38.2327 3.34553
123 2 15.4297 -40.0976 1.39854
6770 2 13.6455 -38.3154 1.33595
6734 2 13.5447 -40.3274 3.39483
193 2 -9.39489 -34.481 1.36837
158 2 -9.67457 -36.2662 3.28606
1295 2 -7.61725 -34.4857 3.40669
1259 2 -7.50658 -36.229 1.32199
1293 2 -5.75155 -34.2556 1.32814
1257 2 -5.73135 -36.3993 3.32858
2394 2 -3.93077 -34.2867 3.36389
2358 2 -3.7431 -36.2216 1.17722
2392 2 -1.69309 -34.2585 1.12443
2356 2 -1.91223 -36.2462 3.31486
3468 2 -0.0326622 -36.3397 1.38965
3503 2 0.00778131 -34.3492 3.22474
3501 2 1.95163 -34.4799 1.40266
205 1 1.93068 -34.3533 3.55692
3466 2 2.03072 -36.2102 3.38171
4568 2 3.81046 -36.3991 1.2982
4603 2 3.81928 -34.3625 3.23456
4601 2 5.78466 -34.5331 1.29992
4566 2 5.77336 -36.3746 3.51264
5709 2 7.82001 -34.522 3.20066
5673 2 7.90513 -36.4817 1.33915
5707 2 9.70715 -34.4641 1.38077
5671 2 9.78589 -36.3674 3.41346
6808 2 11.6849 -34.4608 3.08695
160 2 15.4752 -36.3162 1.47329
195 2 15.5072 -34.2819 3.37572
6773 2 11.7743 -36.4897 1.404
6806 2 13.4871 -34.3528 1.21843
6771 2 13.6172 -36.2021 3.47249
232 2 -9.64524 -30.5378 1.53954
194 2 -9.65289 -32.6197 3.39136
1331 2 -7.70667 -30.5423 3.35975
1296 2 -7.86353 -32.3738 1.21861
1329 2 -5.71037 -30.6385 1.5249
1294 2 -5.84068 -32.4623 3.36554
2395 2 -3.76861 -32.4023 1.15825
2431 2 -3.73553 -30.5384 3.28132
2429 2 -1.70344 -30.7043 1.19535
2393 2 -1.80854 -32.4814 3.2034
3540 2 0.165653 -30.5344 3.27042
3504 2 0.145182 -32.5099 1.13637
3538 2 1.94923 -30.462 1.20158
3502 2 1.92811 -32.243 3.1929
4604 2 3.86077 -32.441 1.20331
4641 2 3.95517 -30.6878 3.33632
4639 2 5.98993 -30.5563 1.30533
5710 2 7.78976 -32.4561 1.36936
4602 2 5.90941 -32.5594 3.15012
5745 2 7.95707 -30.7062 3.36089
5743 2 9.69632 -30.4578 1.43117
5708 2 9.85544 -32.5246 3.30237
6809 2 11.4969 -32.4853 1.3918
6844 2 11.4892 -30.5579 3.52444
196 2 15.415 -32.4175 1.25018
234 2 15.423 -30.5724 3.58346
6842 2 13.3488 -30.5699 1.2004
6807 2 13.6404 -32.4417 3.26167
1369 2 -7.59791 -24.8734 1.30431
270 2 -9.46469 -26.706 1.71714
233 2 -9.65712 -28.5718 3.51715
1332 2 -7.71829 -28.6889 1.38309
1368 2 -7.49307 -26.6231 3.32249
1366 2 -5.68587 -26.7248 1.2141
1330 2 -5.73938 -28.712 3.23592
2468 2 -3.77682 -26.7049 3.33736
2391 1 -5.62971 -27.0769 3.54704
2469 2 -3.75079 -24.8522 1.56951
2467 2 -1.7107 -24.8531 3.22713
2432 2 -3.60801 -28.6752 1.28405
2466 2 -1.7249 -26.8893 1.39499
2430 2 -1.81596 -28.7832 3.3238
3541 2 0.0805981 -28.7842 1.16695
3578 2 0.0428077 -24.8699 1.26061
4678 2 3.96546 -24.9542 1.20647
3576 2 2.29027 -25.0271 3.21568
3577 2 0.245751 -26.9967 3.29162
3575 2 2.12713 -26.9611 1.26423
3539 2 2.14346 -28.6695 3.29533
5783 2 7.59535 -24.8705 1.22715
4642 2 4.04259 -28.8173 1.27161
4677 2 4.07122 -26.9578 3.40767
4675 2 5.94401 -26.9473 1.40866
4640 2 5.96077 -28.7331 3.30278
5782 2 7.63953 -26.7547 3.42837
4676 2 5.77311 -24.8783 3.36115
5746 2 7.83793 -28.737 1.26093
5780 2 9.54192 -26.7722 1.20833
5744 2 9.53375 -28.5725 3.34789
6845 2 11.5161 -28.5979 1.46078
6881 2 11.4515 -24.882 1.37244
5781 2 9.65166 -24.8705 3.356
273 2 15.5079 -24.9425 1.45356
272 2 15.2886 -26.7212 3.54104
235 2 15.3075 -28.6464 1.47897
6880 2 11.7177 -26.8579 3.52967
6878 2 13.4203 -26.8358 1.24832
6843 2 13.4858 -28.7877 3.62882
16 2 -11.267 -53.6094 7.36617
52 2 -9.4649 -50.1601 5.51345
1114 2 -5.65657 -53.6816 5.36294
1117 2 -7.54276 -52.0445 5.30289
1150 2 -5.63099 -49.9977 5.44785
2213 2 -3.74978 -51.7483 5.56434
2247 2 -1.84938 -49.941 5.43044
3359 2 -0.116451 -49.8042 7.31978
2210 2 -1.82902 -53.6517 5.61868
3321 2 2.12274 -53.6258 5.42902
3324 2 0.147433 -51.7946 5.45564
3357 2 1.98268 -49.8309 5.46235
4424 2 3.97836 -51.8179 5.42317
4458 2 5.83559 -49.9443 5.45081
5530 2 7.91022 -51.8013 5.52392
5565 2 7.90485 -49.7386 7.32941
5563 2 9.74403 -49.7802 5.53032
6629 2 11.6103 -51.7755 5.43529
5527 2 9.57793 -53.6478 5.52944
17 2 15.5092 -52.0213 5.24417
6663 2 13.5079 -49.8309 5.48043
6627 2 13.5204 -52.0798 7.24847
88 2 -9.52277 -45.7639 5.45737
1153 2 -7.94641 -47.8823 5.43337
1190 2 -7.63061 -45.9572 7.34966
1188 2 -5.76796 -46.0819 5.3744
2250 2 -3.76893 -48.0301 5.47143
1151 2 -5.69924 -47.96 7.3671
2284 2 -1.81258 -45.8374 5.35899
3360 2 -0.109455 -47.952 5.36708
2286 2 -3.67991 -46.0957 7.31765
3395 2 1.79141 -46.0329 5.5502
4461 2 3.91747 -47.9358 5.49068
4494 2 6.01117 -45.9861 5.26507
4459 2 5.92891 -47.9473 7.32893
4496 2 4.03382 -46.0301 7.25916
2408 1 7.59825 -47.8455 7.35448
5566 2 7.88192 -47.8385 5.3584
5601 2 7.88216 -46.0562 7.24672
5599 2 9.70702 -45.9358 5.27795
55 2 15.5172 -48.0017 5.57098
6666 2 11.8643 -47.8133 5.1882
6700 2 13.6318 -45.8965 5.43291
124 2 -9.24593 -41.9714 5.48661
91 2 -11.3904 -44.0045 5.49793
126 2 -11.37 -42.0483 7.31202
1191 2 -7.40183 -43.9282 5.46082
1224 2 -5.56917 -42.0387 5.32588
2287 2 -4.00517 -44.2019 5.43019
2322 2 -1.97517 -42.276 5.39308
3398 2 0.0150521 -43.9428 5.43763
3432 2 2.07907 -42.1713 5.21266
3396 2 1.99315 -44.0729 7.31865
4497 2 3.98351 -44.0492 5.46643
4532 2 5.92705 -42.108 5.45765
5602 2 7.69811 -43.8851 5.41161
5637 2 9.97787 -42.1007 5.51404
6703 2 11.7625 -44.1628 5.61661
6737 2 13.8025 -42.2064 5.39356
161 2 -9.39149 -38.1141 5.2231
127 2 -11.3618 -40.0511 5.21075
163 2 -11.379 -38.2292 7.27178
1262 2 -7.53516 -38.3589 7.29657
1227 2 -7.48836 -40.1309 5.3318
1260 2 -5.61259 -38.321 5.44444
2325 2 -3.64454 -40.3215 5.37281
2359 2 -1.68515 -38.2642 5.15861
3471 2 -0.0466171 -38.2286 7.36941
2323 2 -1.74462 -40.2529 7.17548
3435 2 0.158163 -40.1544 5.17655
3469 2 1.92156 -38.4105 5.45383
3433 2 2.0596 -40.2839 7.24357
4571 2 3.88414 -38.3234 7.34812
4535 2 3.99942 -40.3525 5.31696
4569 2 5.79712 -38.3537 5.45676
4533 2 6.01266 -40.2979 7.22425
5640 2 7.98179 -40.2927 5.37102
5676 2 7.83628 -38.5 7.34313
5674 2 9.95741 -38.3882 5.66099
6740 2 11.7052 -40.2305 5.27437
6774 2 13.5231 -38.1476 5.4757
51 1 15.3505 -40.1591 6.83669
6738 2 13.5344 -40.2566 7.31964
197 2 -9.60913 -34.4712 5.31452
199 2 -11.3183 -34.4408 7.33512
1263 2 -7.5015 -36.3454 5.39874
1297 2 -5.55501 -34.5337 5.41659
2362 2 -3.79179 -36.4864 5.20914
2470 1 -5.54782 -34.5996 7.3254
2398 2 -3.70452 -34.2448 7.32048
2396 2 -1.7421 -34.4025 5.20789
2360 2 -1.94924 -36.3228 7.145
3472 2 0.131142 -36.2739 5.3658
3505 2 2.0601 -34.4674 5.32398
4572 2 3.87902 -36.3771 5.6737
4607 2 3.858 -34.2727 7.28762
4605 2 5.81546 -34.4454 5.31937
5677 2 7.78977 -36.3663 5.3514
5713 2 7.79701 -34.4853 7.29414
5711 2 9.64719 -34.5142 5.40204
6777 2 11.675 -36.1948 5.47874
5675 2 9.75481 -36.4018 7.35574
4679 1 9.40289 -34.3502 7.1519
164 2 15.436 -36.3669 5.3553
6810 2 13.4818 -34.2071 5.24972
236 2 -9.58187 -30.5896 5.2045
198 2 -9.45134 -32.6379 7.36703
1335 2 -7.67143 -30.553 7.24374
1300 2 -7.51889 -32.5681 5.3712
1333 2 -5.64319 -30.495 5.49708
2399 2 -3.78531 -32.4716 5.18507
2433 2 -1.71959 -30.7173 5.21271
2397 2 -1.75131 -32.4701 7.25669
3508 2 0.173399 -32.5327 5.40694
3544 2 0.232801 -30.6 7.24253
3542 2 2.07756 -30.5562 5.40146
4608 2 3.78169 -32.4732 5.37246
4643 2 5.83568 -30.8037 5.28509
5714 2 7.77156 -32.5814 5.34906
4646 2 4.06097 -28.9284 5.44269
5749 2 7.65497 -30.5073 7.35234
5747 2 9.65261 -30.5992 5.40982
6813 2 11.4719 -32.7265 5.66443
200 2 15.4765 -32.6207 5.57137
6846 2 13.4179 -30.8314 5.31802
238 2 15.5193 -30.6437 7.19561
274 2 -9.34984 -26.7418 5.21568
239 2 -11.297 -28.6132 5.33501
1336 2 -7.46166 -28.6665 5.31752
1370 2 -5.58749 -26.8082 5.26458
2436 2 -3.86195 -28.6217 5.48779
1372 2 -7.46193 -26.8015 7.35113
2474 2 -3.62978 -24.8467 5.3676
2471 2 -1.87983 -26.8652 5.22582
2434 2 -1.79225 -28.6254 7.23634
3582 2 0.0502627 -24.8691 5.03312
4683 2 3.94229 -24.8515 5.45113
3545 2 0.253294 -28.7709 5.30956
3579 2 2.10529 -26.8632 5.42425
3581 2 0.159734 -26.7389 7.11939
5786 2 7.69909 -26.6016 7.32897
4682 2 4.03774 -26.6339 7.33575
4680 2 5.8156 -26.7795 5.28814
5750 2 7.56148 -28.7362 5.38699
4644 2 5.83172 -28.5875 7.34846
6885 2 11.549 -24.8279 5.4299
5784 2 9.65834 -26.7744 5.47252
6849 2 11.5422 -28.7298 5.54118
5678 1 11.3647 -26.4349 5.61697
6847 2 13.8261 -28.6154 7.06086
6882 2 13.5427 -26.7781 5.3996
18 2 -9.42684 -53.4253 9.71367
1152 2 -7.71583 -49.8017 7.52457
15 2 -9.544 -51.7521 7.50363
56 2 -9.67183 -49.7558 9.42171
1121 2 -7.63415 -51.7625 9.43805
1118 2 -5.84746 -53.5001 9.64361
1115 2 -5.82328 -51.9248 7.39931
1154 2 -5.59343 -49.8136 9.31067
2217 2 -3.97706 -51.7616 9.36303
2214 2 -1.90431 -53.5691 9.38228
2211 2 -1.84417 -51.6365 7.4866
2249 2 -3.65523 -49.9207 7.4841
2251 2 -1.82776 -49.6636 9.43861
4423 2 3.85256 -53.4844 7.42985
3323 2 0.198851 -53.5919 7.46918
4460 2 3.86268 -49.9715 7.49987
3328 2 0.179656 -51.5847 9.38408
3322 2 1.92291 -51.4426 7.44822
3361 2 1.84267 -49.7691 9.51514
4428 2 3.74567 -51.5455 9.29464
3325 2 2.0231 -53.6305 9.43136
4422 2 5.91368 -51.4927 7.47107
4462 2 5.76631 -49.864 9.46701
5534 2 7.75108 -51.7093 9.46917
4425 2 5.77907 -53.5864 9.3466
5531 2 9.58264 -53.6757 9.68111
5528 2 9.76509 -51.6916 7.44825
5567 2 9.68316 -49.884 9.62379
6633 2 11.6163 -51.6055 9.35697
5529 2 7.95855 -53.5873 7.55942
6665 2 11.8476 -49.8916 7.48109
54 2 15.3879 -49.8741 7.54364
21 2 15.3903 -51.7544 9.33496
6667 2 13.5991 -49.8157 9.47328
6630 2 13.6098 -53.6674 9.55643
53 2 -9.69428 -47.8589 7.43294
90 2 -11.3613 -45.8019 7.43345
92 2 -9.39765 -45.8445 9.32705
1157 2 -7.63008 -47.7624 9.23904
1192 2 -5.77376 -45.8926 9.40074
2254 2 -3.78856 -47.8378 9.46392
3397 2 -0.124924 -45.7896 7.42076
2248 2 -1.78363 -47.8784 7.52862
2288 2 -1.82065 -45.8593 9.56732
3364 2 0.0331701 -47.8185 9.55719
3358 2 1.69836 -47.8584 7.55049
3399 2 2.08252 -46.1044 9.38258
4465 2 3.97358 -47.893 9.29649
4498 2 6.05399 -45.9632 9.03342
5570 2 7.81826 -48.0359 9.38087
5564 2 9.90169 -47.9494 7.49015
5603 2 9.4979 -46.0274 9.32924
6670 2 11.6501 -48.0286 9.56323
6702 2 11.7286 -46.0862 7.39398
6664 2 13.7092 -47.8777 7.54298
59 2 15.5194 -47.877 9.41111
6704 2 13.4189 -46.104 9.61537
89 2 -9.3803 -43.7867 7.39258
128 2 -9.45257 -42.1854 9.69606
1195 2 -7.49301 -43.9667 9.40478
1226 2 -7.47865 -41.9197 7.49179
1189 2 -5.54082 -43.9275 7.41322
1228 2 -5.6156 -42.1663 9.35231
2291 2 -3.74428 -44.1221 9.36948
2324 2 -3.77802 -41.9653 7.38029
3434 2 0.0535934 -42.1289 7.43345
2285 2 -1.8753 -44.0479 7.37494
2326 2 -1.85689 -42.205 9.43278
3402 2 0.127919 -43.9724 9.51171
4534 2 3.90079 -42.0911 7.40164
3436 2 2.20631 -42.272 9.4578
4501 2 3.96448 -44.4002 9.29585
4495 2 5.96804 -44.0721 7.50431
4536 2 5.94957 -42.0976 9.53784
5639 2 7.89587 -42.0449 7.39512
5600 2 9.81881 -44.1503 7.57762
5606 2 7.9048 -44.0659 9.56037
5641 2 9.84896 -42.2319 9.34882
6707 2 11.6539 -44.0443 9.56181
95 2 15.4955 -43.9963 9.40078
6739 2 11.8183 -42.2699 7.39496
6701 2 13.7862 -44.1181 7.52623
6741 2 13.5062 -42.0231 9.38746
125 2 -9.41718 -40.1493 7.43702
165 2 -9.29308 -38.4602 9.49133
1225 2 -5.67314 -40.1007 7.46835
1231 2 -7.53507 -40.3078 9.61868
1264 2 -5.63661 -38.3966 9.58545
2329 2 -3.81653 -40.1426 9.53136
2361 2 -3.63903 -38.4174 7.3829
2363 2 -1.86321 -38.4849 9.53494
3439 2 0.0665358 -40.264 9.258
3473 2 1.95567 -38.3616 9.24796
4539 2 3.87813 -40.2577 9.41734
4573 2 5.93101 -38.5686 9.24343
5644 2 7.97351 -40.2016 9.53418
5638 2 9.89225 -40.3728 7.51398
5679 2 9.72558 -38.1377 9.36916
6776 2 11.7509 -38.1579 7.57574
131 2 15.4979 -40.0243 9.23164
6744 2 11.7938 -40.0073 9.45206
6778 2 13.552 -37.9858 9.4058
162 2 -9.43518 -36.4409 7.38861
201 2 -9.35624 -34.5015 9.46483
168 2 -11.3161 -36.4429 9.42339
1299 2 -7.41652 -34.5566 7.37709
1261 2 -5.45037 -36.3385 7.4237
1267 2 -7.36125 -36.3916 9.32046
1301 2 -5.37462 -34.5434 9.58175
3507 2 0.00904724 -34.5375 7.56361