ITEM: TIMESTEP
1000
ITEM: NUMBER OF ATOMS
1665
ITEM: BOX BOUNDS pp pp ss
-1.5840000000000000e+01 1.5840000000000000e+01
-1.5840000000000000e+01 1.5840000000000000e+01
-2.3762771999999998e+01 7.6535941121819873e-01
ITEM: ATOMS id type xu yu zu
1 1 -15.84 -15.84 -23.76
2 1 -13.86 -13.86 -23.76
3 1 -13.86 -15.84 -21.78
4 1 -15.84 -13.86 -21.78
5 1 -11.88 -15.84 -23.76
6 1 -9.9 -13.86 -23.76
7 1 -9.9 -15.84 -21.78
8 1 -11.88 -13.86 -21.78
9 1 -7.92 -15.84 -23.76
10 1 -5.94 -13.86 -23.76
11 1 -5.94 -15.84 -21.78
12 1 -7.92 -13.86 -21.78
13 1 -3.96 -15.84 -23.76
14 1 -1.98 -13.86 -23.76
15 1 -1.98 -15.84 -21.78
16 1 -3.96 -13.86 -21.78
17 1 -15.84 -11.88 -23.76
18 1 -13.86 -9.9 -23.76
19 1 -13.86 -11.88 -21.78
20 1 -15.84 -9.9 -21.78
21 1 -11.88 -11.88 -23.76
22 1 -9.9 -9.9 -23.76
23 1 -9.9 -11.88 -21.78
24 1 -11.88 -9.9 -21.78
25 1 -7.92 -11.88 -23.76
26 1 -5.94 -9.9 -23.76
27 1 -5.94 -11.88 -21.78
28 1 -7.92 -9.9 -21.78
29 1 -3.96 -11.88 -23.76
30 1 -1.98 -9.9 -23.76
31 1 -1.98 -11.88 -21.78
32 1 -3.96 -9.9 -21.78
33 1 -15.84 -7.92 -23.76
34 1 -13.86 -5.94 -23.76
35 1 -13.86 -7.92 -21.78
36 1 -15.84 -5.94 -21.78
37 1 -11.88 -7.92 -23.76
38 1 -9.9 -5.94 -23.76
39 1 -9.9 -7.92 -21.78
40 1 -11.88 -5.94 -21.78
41 1 -7.92 -7.92 -23.76
42 1 -5.94 -5.94 -23.76
43 1 -5.94 -7.92 -21.78
44 1 -7.92 -5.94 -21.78
45 1 -3.96 -7.92 -23.76
46 1 -1.98 -5.94 -23.76
47 1 -1.98 -7.92 -21.78
48 1 -3.96 -5.94 -21.78
49 1 -15.84 -3.96 -23.76
50 1 -13.86 -1.98 -23.76
51 1 -13.86 -3.96 -21.78
52 1 -15.84 -1.98 -21.78
53 1 -11.88 -3.96 -23.76
54 1 -9.9 -1.98 -23.76
55 1 -9.9 -3.96 -21.78
56 1 -11.88 -1.98 -21.78
57 1 -7.92 -3.96 -23.76
58 1 -5.94 -1.98 -23.76
59 1 -5.94 -3.96 -21.78
60 1 -7.92 -1.98 -21.78
61 1 -3.96 -3.96 -23.76
62 1 -1.98 -1.98 -23.76
63 1 -1.98 -3.96 -21.78
64 1 -3.96 -1.98 -21.78
65 1 -15.7779 -15.7085 -19.7189
66 1 -13.7592 -13.7147 -19.761
67 1 -13.8254 -15.5653 -17.725
68 1 -15.7312 -13.5323 -17.6735
69 1 -12.1328 -15.856 -19.8785
70 1 -9.90286 -13.8753 -19.8803
71 1 -10.208 -15.7232 -17.8796
72 1 -11.8856 -13.4915 -17.7765
73 1 -7.91403 -15.6802 -19.6036
74 1 -5.97685 -13.5764 -19.8772
75 1 -5.91248 -15.875 -17.9668
76 1 -7.81626 -13.6429 -17.8651
77 1 -4.06016 -15.9187 -19.8362
78 1 -2.03731 -13.6914 -19.9186
79 1 -2.01459 -15.8657 -17.7721
80 1 -3.92666 -13.6154 -18.0301
81 1 -15.6785 -11.8762 -19.8298
82 1 -14.029 -9.61634 -19.7212
83 1 -13.7592 -11.5457 -17.9105
84 1 -15.7221 -9.78809 -17.7265
85 1 -11.8383 -11.745 -19.7164
86 1 -10.1293 -9.82861 -20.0246
87 1 -9.81694 -11.9034 -17.7826
88 1 -11.7892 -9.73249 -17.7285
89 1 -8.1607 -11.8898 -19.9169
90 1 -5.91767 -9.9398 -20.1319
91 1 -5.96996 -11.6408 -17.8492
92 1 -7.94804 -9.79386 -18.036
93 1 -3.9734 -11.774 -19.8197
94 1 -2.04804 -9.99816 -19.8856
95 1 -1.85387 -11.874 -17.7722
96 1 -3.71662 -9.56618 -17.9332
97 1 -15.7098 -7.50589 -19.78
98 1 -13.7631 -5.72342 -19.755
99 1 -13.7775 -7.9007 -17.9538
100 1 -15.8998 -5.82968 -17.6017
101 1 -11.7046 -7.80433 -19.7686
102 1 -9.73707 -5.87356 -19.7281
103 1 -10.0405 -7.74771 -17.7307
104 1 -12.1538 -5.78344 -17.397
105 1 -7.91042 -8.01803 -19.9287
106 1 -5.93138 -6.30688 -19.8783
107 1 -5.85333 -7.87891 -17.7778
108 1 -7.71421 -5.88362 -17.7991
109 1 -3.95231 -7.92533 -19.9006
110 1 -1.92653 -5.83965 -19.7586
111 1 -1.89202 -7.58119 -18.005
112 1 -4.19845 -5.75924 -18.0137
113 1 -15.8237 -4.09294 -19.8541
114 1 -13.7142 -1.92433 -19.7582
115 1 -13.9501 -3.66272 -17.7004
116 1 -15.8063 -1.73276 -17.9401
117 1 -11.8263 -4.03822 -19.7429
118 1 -9.69655 -2.19936 -20.0106
119 1 -10.0907 -4.15113 -17.8626
120 1 -11.6276 -2.21741 -17.6709
121 1 -7.84805 -4.03557 -19.8682
122 1 -6.17845 -1.90988 -19.8613
123 1 -6.0907 -3.73352 -17.7982
124 1 -7.89335 -1.68852 -17.6651
125 1 -4.02974 -3.94959 -19.8587
126 1 -1.91386 -1.89581 -19.8946
127 1 -1.94785 -4.1714 -17.9159
128 1 -3.9292 -2.03861 -17.85
129 1 -15.8846 -15.6966 -16.0072
130 1 -13.8425 -13.532 -15.8406
131 1 -14.0242 -15.6103 -14.0331
132 1 -15.8816 -13.6394 -14.0599
133 1 -11.793 -15.7363 -16.0653
134 1 -9.77366 -13.7363 -15.8233
135 1 -9.62493 -15.7097 -14.2594
136 1 -11.9077 -13.8664 -13.9899
137 1 -7.89495 -15.7057 -16.1691
138 1 -5.8134 -13.8478 -15.9092
139 1 -5.97581 -15.5687 -14.0011
140 1 -7.77252 -13.622 -14.0402
141 1 -4.0205 -15.7729 -16.105
142 1 -1.90038 -13.8235 -15.8656
143 1 -2.16806 -15.7607 -13.8917
144 1 -3.83215 -13.5692 -13.9655
145 1 -15.7491 -11.482 -15.8316
146 1 -13.8738 -9.61201 -15.6688
147 1 -14.0161 -11.8641 -13.8151
148 1 -15.9844 -9.9547 -13.7337
149 1 -11.9505 -11.633 -15.5021
150 1 -9.8662 -9.75357 -15.6715
151 1 -9.89264 -11.8665 -13.6692
152 1 -12.0868 -9.62681 -13.8317
153 1 -7.92085 -11.7031 -16.0801
154 1 -5.77857 -9.86836 -15.5662
155 1 -5.88208 -11.6865 -13.9932
156 1 -7.93717 -10.0465 -13.6262
157 1 -3.83393 -11.7897 -16.1781
158 1 -1.81576 -9.73334 -15.9752
159 1 -2.03417 -11.74 -13.9611
160 1 -3.59605 -9.72059 -13.9343
161 1 -15.9121 -7.87427 -15.8902
162 1 -13.8542 -5.9405 -15.6407
163 1 -14.2516 -7.84126 -13.8273
164 1 -16.0288 -5.86661 -13.8234
165 1 -11.7232 -7.82149 -15.7013
166 1 -9.95217 -5.96155 -15.5297
167 1 -9.7649 -7.97868 -13.7917
168 1 -11.8264 -6.07048 -13.6926
169 1 -7.99811 -8.07725 -15.9113
170 1 -5.8918 -5.81527 -16.0041
171 1 -5.96864 -8.0262 -13.917
172 1 -7.82433 -6.217 -13.9612
173 1 -3.98665 -7.75244 -15.9793
174 1 -1.97009 -6.0094 -16.0944
175 1 -1.72849 -7.88095 -13.9252
176 1 -3.74866 -5.95045 -13.8979
177 1 -15.8039 -3.83882 -15.8592
178 1 -13.8226 -1.79829 -15.8092
179 1 -13.8889 -4.03752 -14.0388
180 1 -15.839 -1.73838 -13.9026
181 1 -11.8124 -3.81903 -15.4844
182 1 -9.85182 -2.00959 -15.6097
183 1 -9.89426 -4.24515 -13.8236
184 1 -11.6779 -2.01184 -13.5151
185 1 -8.12552 -3.92931 -15.8543
186 1 -5.98681 -1.79814 -15.7656
187 1 -6.03098 -4.06653 -13.8095
188 1 -7.73384 -2.28911 -13.669
189 1 -4.00037 -3.7506 -15.7745
190 1 -1.71218 -2.04174 -15.9212
191 1 -1.95747 -3.94882 -14.0428
192 1 -3.90352 -2.07986 -13.8759
193 1 -15.7112 -15.6389 -11.9433
194 1 -13.8888 -13.7892 -11.9652
195 1 -13.654 -15.8571 -9.97135
196 1 -15.682 -13.6886 -9.85747
197 1 -11.7144 -15.6256 -11.9806
198 1 -9.8089 -13.6848 -11.8582
199 1 -9.87327 -16.0799 -10.0623
200 1 -11.809 -13.9063 -9.94915
201 1 -8.03219 -15.8715 -12.1908
202 1 -5.84456 -13.7069 -11.9726
203 1 -5.99298 -15.805 -10.1937
204 1 -8.0708 -13.9255 -9.97323
205 1 -4.00668 -15.7949 -11.8664
206 1 -1.91548 -13.7658 -12.0422
207 1 -2.05806 -15.738 -9.89765
208 1 -3.9332 -13.986 -10.0103
209 1 -15.8341 -11.8101 -11.6162
210 1 -13.8515 -9.79406 -11.6375
211 1 -13.6649 -11.8882 -9.64708
212 1 -16.0675 -9.79231 -9.86519
213 1 -11.9948 -11.8451 -12.1399
214 1 -10.021 -9.91648 -11.7959
215 1 -9.98261 -12.0646 -9.80456
216 1 -11.8109 -10.0286 -9.6857
217 1 -7.84506 -11.8253 -11.8756
218 1 -5.75657 -10.1398 -11.9578
219 1 -5.71091 -11.9849 -10.0264
220 1 -7.73759 -10.0314 -9.93896
221 1 -3.64715 -11.9371 -11.8674
222 1 -1.85705 -9.90978 -11.9814
223 1 -1.92876 -12.0162 -9.98174
224 1 -3.79756 -9.97746 -9.74032
225 1 -16.0847 -7.87418 -11.891
226 1 -14.0507 -5.94663 -12.0357
227 1 -13.8914 -7.8206 -9.93701
228 1 -15.9295 -5.95946 -10.0568
229 1 -11.875 -7.96562 -11.9085
230 1 -9.69197 -6.08675 -11.5919
231 1 -9.95747 -8.17419 -10.037
232 1 -11.9887 -5.99108 -9.99257
233 1 -7.94658 -8.03651 -11.6635
234 1 -5.84203 -6.34521 -11.9533
235 1 -5.7452 -8.11321 -9.76854
236 1 -7.78566 -6.10885 -9.64231
237 1 -4.00645 -7.97436 -11.9092
238 1 -1.83234 -5.94632 -11.8737
239 1 -2.03564 -8.017 -9.92541
240 1 -3.85325 -5.97655 -9.89081
241 1 -15.9038 -3.95019 -11.8558
242 1 -13.8879 -2.03977 -11.675
243 1 -13.908 -4.2069 -9.83286
244 1 -16.0167 -2.02493 -9.95751
245 1 -11.9818 -4.12425 -11.8558
246 1 -9.89521 -2.0548 -11.7365
247 1 -10.0144 -4.04103 -9.67709
248 1 -11.7844 -1.94215 -10.1247
249 1 -7.74501 -4.38273 -11.6882
250 1 -6.01107 -2.27145 -11.7459
251 1 -5.8475 -4.01119 -9.85364
252 1 -7.85565 -1.94293 -9.75902
253 1 -4.01793 -4.04881 -11.8325
254 1 -2.1351 -2.20691 -11.9762
255 1 -1.77478 -3.85053 -9.98825
256 1 -4.006 -2.02797 -9.94524
257 1 -15.5378 -15.9541 -8.0796
258 1 -13.8979 -13.8829 -7.70285
259 1 -13.9568 -15.8741 -5.89573
260 1 -15.9533 -13.743 -5.99582
261 1 -11.9572 -16.146 -7.83176
262 1 -9.99283 -14.2493 -7.95374
263 1 -9.98158 -16.0334 -5.83381
264 1 -11.5564 -13.9995 -5.92743
265 1 -7.82436 -15.7778 -7.9743
266 1 -5.84373 -13.9726 -8.09688
267 1 -5.76617 -16.1081 -5.76908
268 1 -7.94858 -14.1216 -5.90291
269 1 -4.18316 -16.1769 -8.30728
270 1 -1.97242 -13.8082 -8.11187
271 1 -2.01733 -15.9734 -6.12852
272 1 -3.92275 -13.7737 -6.13014
273 1 -15.8708 -11.7316 -8.05785
274 1 -13.9152 -9.98804 -8.01627
275 1 -13.7749 -11.8304 -6.07435
276 1 -15.7374 -10.0103 -5.86455
277 1 -11.808 -12.1021 -7.86589
278 1 -9.65508 -10.0132 -8.04467
279 1 -9.96096 -11.6959 -5.80274
280 1 -11.7766 -9.87551 -5.97834
281 1 -7.99825 -12.1159 -8.04837
282 1 -5.7376 -10.0853 -7.8073
283 1 -6.12373 -12.0703 -5.86158
284 1 -7.81424 -10.0167 -6.06017
285 1 -3.96161 -11.9411 -7.9591
286 1 -1.8253 -10.1132 -8.09128
287 1 -1.88818 -11.7253 -5.94397
288 1 -3.8751 -10.0888 -6.02164
289 1 -15.8116 -7.92047 -7.84114
290 1 -14.027 -6.06726 -8.01796
291 1 -13.761 -8.05574 -5.86454
292 1 -15.7648 -5.97366 -5.69575
293 1 -11.9059 -8.01382 -7.79589
294 1 -9.93683 -6.10773 -8.03114
295 1 -9.85922 -8.00124 -6.01641
296 1 -11.9698 -6.06677 -5.9639
297 1 -7.83371 -7.9736 -7.99345
298 1 -5.88701 -5.77572 -7.97429
299 1 -5.92661 -8.07352 -5.9075
300 1 -7.82848 -6.07041 -5.97239
301 1 -3.95384 -7.88317 -7.93525
302 1 -1.98783 -5.983 -7.95586
303 1 -1.9543 -8.15821 -5.96804
304 1 -3.96711 -5.7992 -5.97868
305 1 -15.9294 -4.03745 -7.935
306 1 -13.8207 -1.96878 -7.8632
307 1 -13.8336 -4.06487 -5.8793
308 1 -15.6423 -1.79818 -5.94985
309 1 -12.1593 -4.17856 -7.9165
310 1 -9.93445 -1.96567 -7.86879
311 1 -9.86452 -3.83594 -5.96903
312 1 -11.7391 -2.05045 -5.84479
313 1 -7.95436 -3.87501 -7.82951
314 1 -5.78668 -1.79315 -7.90708
315 1 -5.98345 -3.6229 -5.95825
316 1 -8.09841 -1.82004 -5.75959
317 1 -3.8705 -3.8054 -7.84947
318 1 -1.88564 -1.87973 -7.97823
319 1 -1.92429 -4.0681 -5.752
320 1 -3.77828 -1.88462 -5.8216
321 1 -15.7937 -15.8457 -3.90964
322 1 -13.7102 -13.7399 -4.13632
323 1 -13.7961 -15.8971 -1.9877
324 1 -15.7543 -14.0302 -2.1184
325 1 -11.8564 -15.7538 -3.95465
326 1 -9.8575 -13.8748 -3.79311
327 1 -9.79488 -15.7925 -2.0248
328 1 -11.8923 -13.9077 -1.94652
329 1 -7.90561 -15.9073 -3.93566
330 1 -5.98959 -14.0838 -3.81846
331 1 -5.77989 -15.906 -1.88962
332 1 -7.87975 -13.8761 -1.97948
333 1 -3.97648 -15.7354 -3.98274
334 1 -1.89168 -13.859 -4.00059
335 1 -1.92913 -15.524 -2.06232
336 1 -3.90559 -13.8262 -1.86098
337 1 -15.7667 -11.8978 -3.99584
338 1 -13.8191 -10.039 -3.92277
339 1 -13.8892 -11.9999 -1.98601
340 1 -16.049 -9.73699 -2.08123
341 1 -11.903 -11.8066 -3.87657
342 1 -9.71264 -9.80606 -3.82938
343 1 -9.90414 -11.872 -2.11307
344 1 -11.6778 -9.81613 -2.03662
345 1 -7.858 -11.875 -3.83041
346 1 -6.04346 -9.94661 -4.06321
347 1 -5.73671 -11.9325 -2.17935
348 1 -7.79093 -9.83672 -1.98506
349 1 -3.90336 -11.9066 -4.08046
350 1 -2.02286 -9.93934 -3.98777
351 1 -1.99426 -11.9213 -2.12834
352 1 -4.10253 -9.93621 -2.22599
353 1 -15.8362 -7.99897 -3.9199
354 1 -13.7111 -6.00455 -3.94953
355 1 -13.709 -7.912 -2.09807
356 1 -16.0585 -5.84547 -2.12427
357 1 -11.7228 -7.97037 -4.00995
358 1 -9.86424 -5.9168 -3.9536
359 1 -9.7423 -7.78192 -1.89615
360 1 -11.7484 -6.12365 -1.78881
361 1 -7.84969 -7.85999 -3.98916
362 1 -6.01485 -5.73132 -3.97778
363 1 -5.8707 -7.80035 -2.27468
364 1 -8.03188 -5.82786 -1.76642
365 1 -3.99762 -7.89759 -4.07175
366 1 -1.98203 -5.90479 -4.04026
367 1 -1.99405 -7.93633 -2.09255
368 1 -3.99767 -5.92159 -1.92428
369 1 -15.7942 -3.94095 -4.00392
370 1 -13.8099 -2.1477 -4.08069
371 1 -13.5796 -3.98984 -2.20946
372 1 -15.9703 -2.02778 -2.10909
373 1 -11.8076 -4.16185 -4.13086
374 1 -9.76455 -2.19565 -3.85391
375 1 -9.95948 -3.99287 -1.894
376 1 -11.8226 -2.01229 -2.13614
377 1 -7.90992 -4.0034 -4.00352
378 1 -5.97241 -1.82933 -3.82803
379 1 -5.94723 -3.88366 -1.98787
380 1 -7.88175 -1.92994 -1.81038
381 1 -3.94172 -3.79046 -3.82218
382 1 -1.74011 -1.79393 -3.97068
383 1 -2.05852 -3.71902 -2.17447
384 1 -3.9561 -1.98649 -2.02155
385 1 -15.7277 -15.8229 -0.249296
386 1 -13.9033 -13.8351 -0.0384295
387 1 -11.852 -15.8303 -0.117796
388 1 -9.88711 -13.7843 -0.0597842
389 1 -8.11382 -15.8039 -0.111211
390 1 -5.97716 -13.7639 -0.177923
391 1 -3.69134 -15.7321 -0.0479207
392 1 -1.76915 -13.843 -0.191547
393 1 -15.7958 -11.9754 -0.100744
394 1 -13.9081 -9.84809 -0.31924
395 1 -11.8971 -11.731 -0.147033
396 1 -9.79107 -9.71381 -0.212544
397 1 -7.93098 -11.8864 -0.247345
398 1 -5.96159 -10.0219 -0.25226
399 1 -3.83544 -11.8414 -0.0556357
400 1 -2.11122 -9.86604 -0.254997
401 1 -15.9347 -7.78653 -0.246785
402 1 -14.0222 -5.89467 -0.395036
403 1 -11.9305 -7.64575 0.10256
404 1 -10.0029 -5.73649 0.177291
405 1 -7.57046 -7.89339 -0.287469
406 1 -6.00583 -5.84005 -0.209788
407 1 -4.03552 -8.12673 -0.317917
408 1 -1.99735 -5.82304 -0.192525
409 1 -15.6993 -3.90084 -0.329437
410 1 -13.9036 -2.06661 -0.328287
411 1 -11.7504 -3.8839 -0.116556
412 1 -9.87223 -1.89109 -0.110003
413 1 -8.03005 -3.89098 -0.0501567
414 1 -5.83345 -1.9246 -0.127548
415 1 -4.09803 -3.84482 -0.0358606
416 1 -1.9059 -2.10888 0.0497395
417 1 -15.84 0 -23.76
418 1 -13.86 1.98 -23.76
419 1 -13.86 0 -21.78
420 1 -15.84 1.98 -21.78
421 1 -11.88 0 -23.76
422 1 -9.9 1.98 -23.76
423 1 -9.9 0 -21.78
424 1 -11.88 1.98 -21.78
425 1 -7.92 0 -23.76
426 1 -5.94 1.98 -23.76
427 1 -5.94 0 -21.78
428 1 -7.92 1.98 -21.78
429 1 -3.96 0 -23.76
430 1 -1.98 1.98 -23.76
431 1 -1.98 0 -21.78
432 1 -3.96 1.98 -21.78
433 1 -15.84 3.96 -23.76
434 1 -13.86 5.94 -23.76
435 1 -13.86 3.96 -21.78
436 1 -15.84 5.94 -21.78
437 1 -11.88 3.96 -23.76
438 1 -9.9 5.94 -23.76
439 1 -9.9 3.96 -21.78
440 1 -11.88 5.94 -21.78
441 1 -7.92 3.96 -23.76
442 1 -5.94 5.94 -23.76
443 1 -5.94 3.96 -21.78
444 1 -7.92 5.94 -21.78
445 1 -3.96 3.96 -23.76
446 1 -1.98 5.94 -23.76
447 1 -1.98 3.96 -21.78
448 1 -3.96 5.94 -21.78
449 1 -15.84 7.92 -23.76
450 1 -13.86 9.9 -23.76
451 1 -13.86 7.92 -21.78
452 1 -15.84 9.9 -21.78
453 1 -11.88 7.92 -23.76
454 1 -9.9 9.9 -23.76
455 1 -9.9 7.92 -21.78
456 1 -11.88 9.9 -21.78
457 1 -7.92 7.92 -23.76
458 1 -5.94 9.9 -23.76
459 1 -5.94 7.92 -21.78
460 1 -7.92 9.9 -21.78
461 1 -3.96 7.92 -23.76
462 1 -1.98 9.9 -23.76
463 1 -1.98 7.92 -21.78
464 1 -3.96 9.9 -21.78
465 1 -15.84 11.88 -23.76
466 1 -13.86 13.86 -23.76
467 1 -13.86 11.88 -21.78
468 1 -15.84 13.86 -21.78
469 1 -11.88 11.88 -23.76
470 1 -9.9 13.86 -23.76
471 1 -9.9 11.88 -21.78
472 1 -11.88 13.86 -21.78
473 1 -7.92 11.88 -23.76
474 1 -5.94 13.86 -23.76
475 1 -5.94 11.88 -21.78
476 1 -7.92 13.86 -21.78
477 1 -3.96 11.88 -23.76
478 1 -1.98 13.86 -23.76
479 1 -1.98 11.88 -21.78
480 1 -3.96 13.86 -21.78
481 1 -15.6383 0.201154 -19.7644
482 1 -13.8231 1.99937 -19.953
483 1 -13.6148 -0.0214948 -17.8843
484 1 -15.7979 1.80165 -17.8243
485 1 -11.653 -0.231949 -19.7037
486 1 -10.023 1.91255 -19.8417
487 1 -9.71763 -0.151117 -17.7195
488 1 -11.9248 1.95309 -17.8915
489 1 -7.86708 0.106698 -19.9919
490 1 -5.89945 1.96109 -19.8819
491 1 -5.87484 0.0463993 -17.6778
492 1 -8.14499 1.83605 -17.7098
493 1 -3.95521 -0.017625 -19.7918
494 1 -1.97065 2.06864 -19.9137
495 1 -2.08798 0.202087 -17.9387
496 1 -3.88514 1.89669 -17.8114
497 1 -15.7975 3.83108 -19.733
498 1 -14.0535 6.10338 -19.8858
499 1 -14.2733 3.72753 -17.8233
500 1 -15.535 6.11964 -17.8533
501 1 -11.9116 3.91893 -19.8295
502 1 -9.98481 5.68185 -19.8471
503 1 -9.73636 4.02202 -17.8278
504 1 -12.0822 5.74667 -17.9667
505 1 -7.94706 3.86964 -19.8742
506 1 -6.11624 6.10332 -19.9565
507 1 -5.99507 3.92896 -17.9195
508 1 -7.84598 5.89173 -17.8159
509 1 -4.01713 4.24908 -19.706
510 1 -1.87539 6.009 -19.8556
511 1 -1.85868 4.17237 -17.8793
512 1 -4.09339 6.2551 -18.0477
513 1 -15.8703 7.88568 -19.9132
514 1 -13.6628 9.93443 -20.0464
515 1 -13.8498 8.00047 -17.8043
516 1 -16.0053 9.84479 -17.9746
517 1 -11.7067 7.72551 -19.5714
518 1 -9.82002 10.0173 -19.5182
519 1 -9.93773 7.68408 -17.8285
520 1 -12.1723 9.95885 -17.8864
521 1 -8.1362 7.95894 -19.7358
522 1 -5.944 9.9146 -20.0301
523 1 -5.94443 8.01227 -17.9005
524 1 -7.8826 9.79796 -17.9701
525 1 -4.07987 8.1335 -19.9039
526 1 -1.79989 9.83929 -19.9228
527 1 -1.93163 7.97832 -18.0176
528 1 -3.74758 9.99004 -17.9077
529 1 -15.8257 11.8327 -19.8022
530 1 -13.9018 13.812 -19.7188
531 1 -14.017 11.7735 -17.8438
532 1 -15.8533 14.0471 -17.819
533 1 -11.8653 11.9151 -19.746
534 1 -10.0438 14.0495 -19.6665
535 1 -10.056 12.0527 -17.7148
536 1 -11.9388 13.6398 -17.8684
537 1 -8.11493 12.0855 -19.8733
538 1 -5.83152 13.715 -19.9587
539 1 -6.12598 11.9102 -18.0447
540 1 -7.93702 13.9116 -17.7537
541 1 -3.9024 11.9654 -19.8554
542 1 -1.97281 13.7064 -19.7031
543 1 -1.80766 11.7744 -17.7988
544 1 -4.04261 13.6335 -17.7841
545 1 -15.9014 0.12424 -16.0572
546 1 -13.9327 2.05924 -15.7236
547 1 -13.6 -0.122801 -13.7817
548 1 -15.5634 1.91158 -13.7736
549 1 -11.9234 0.0843684 -15.7988
550 1 -9.89732 2.02885 -15.6885
551 1 -9.83311 -0.202882 -13.8399
552 1 -11.8704 1.96382 -13.875
553 1 -7.89896 0.0218958 -15.4796
554 1 -5.99424 2.03956 -15.8193
555 1 -5.99292 0.0201099 -13.6234
556 1 -7.94553 2.07328 -13.7894
557 1 -3.77583 -0.111555 -15.8458
558 1 -2.11311 2.16555 -15.819
559 1 -1.80577 -0.107696 -13.8527
560 1 -3.9781 1.82459 -13.8476
561 1 -15.9113 3.87235 -15.7709
562 1 -13.798 5.72969 -15.7928
563 1 -13.8047 3.86568 -13.6541
564 1 -15.6736 5.76936 -13.782
565 1 -11.8532 3.91441 -15.857
566 1 -9.98379 5.81168 -15.8866
567 1 -9.99434 3.79721 -13.7737
568 1 -11.749 5.78698 -13.8758
569 1 -8.02541 4.10469 -15.6196
570 1 -5.95686 5.90945 -15.9347
571 1 -5.9061 4.11711 -13.8752
572 1 -8.08511 5.91831 -13.7447
573 1 -3.94198 4.06528 -16.0358
574 1 -2.0842 5.99619 -15.9312
575 1 -2.13392 4.249 -13.9084
576 1 -4.20983 6.11578 -14.0573
577 1 -15.7473 7.74572 -15.741
578 1 -13.9632 10.032 -15.8698
579 1 -13.6212 7.65927 -13.9532
580 1 -15.7531 9.83598 -14.0623
581 1 -11.8703 7.90473 -16.0804
582 1 -10.0717 9.86634 -16.1534
583 1 -9.85069 7.86588 -13.9598
584 1 -11.7634 9.93449 -14.071
585 1 -7.91208 7.73259 -15.821
586 1 -5.75994 9.91552 -15.9323
587 1 -6.12731 8.14315 -13.8569
588 1 -8.01257 10.0093 -14.1545
589 1 -4.01844 7.76699 -15.9991
590 1 -1.90531 9.79575 -15.845
591 1 -2.05433 7.82514 -13.8174
592 1 -3.94273 9.76822 -13.9426
593 1 -15.896 11.9626 -15.8966
594 1 -13.8121 13.7699 -15.9568
595 1 -13.8331 11.7153 -13.9603
596 1 -15.62 13.8929 -13.9362
597 1 -12.108 11.9307 -15.6809
598 1 -9.73497 13.9212 -15.8679
599 1 -10.0146 11.8891 -14.0907
600 1 -11.8125 14.0609 -14.0074
601 1 -7.88459 12.0973 -15.9019
602 1 -5.95173 14.0063 -15.7649
603 1 -5.96481 11.7016 -13.9915
604 1 -7.83113 13.8903 -13.9251
605 1 -3.85749 11.9337 -15.8745
606 1 -2.04782 13.9193 -15.9309
607 1 -2.0527 12.0621 -13.9821
608 1 -4.05565 13.9422 -13.9343
609 1 -15.6113 0.0555592 -11.7449
610 1 -13.8315 1.82152 -11.8953
611 1 -13.9191 -0.0516394 -9.77264
612 1 -15.5743 2.02467 -9.90693
613 1 -11.7824 0.116337 -11.9569
614 1 -9.93695 1.976 -11.9226
615 1 -9.94947 0.110426 -9.9632
616 1 -11.8919 1.85259 -9.90084
617 1 -7.83402 0.112165 -11.7027
618 1 -6.13529 2.12882 -11.7492
619 1 -5.94973 -0.0261689 -9.81151
620 1 -8.05195 2.07784 -9.73564
621 1 -3.93756 0.142489 -11.8362
622 1 -1.97278 1.91456 -11.8923
623 1 -2.02154 -0.107822 -10.217
624 1 -3.78076 2.1533 -9.90632
625 1 -15.8138 3.82034 -11.8947
626 1 -13.7449 5.88044 -11.8861
627 1 -13.8909 3.96395 -9.78058
628 1 -15.8302 5.84312 -10.0105
629 1 -11.9151 3.88344 -11.7554
630 1 -9.9832 5.78498 -11.774
631 1 -9.76071 3.98851 -9.79011
632 1 -11.8736 5.86487 -9.71024
633 1 -7.89933 4.038 -11.9441
634 1 -6.03371 5.95059 -11.9737
635 1 -6.10149 3.98286 -9.76886
636 1 -7.94059 5.92053 -9.77395
637 1 -3.93857 4.01627 -11.9185
638 1 -2.07161 6.05607 -11.9451
639 1 -1.87357 4.02254 -9.98799
640 1 -4.06712 6.06892 -10.0134
641 1 -15.7002 7.87757 -11.8849
642 1 -13.5359 9.68209 -12.0389
643 1 -13.641 7.951 -9.98714
644 1 -15.751 9.95395 -10.0631
645 1 -11.6688 7.75626 -11.8815
646 1 -9.80351 9.82525 -12.1039
647 1 -10.1483 7.87727 -9.78643
648 1 -11.8943 9.86084 -10.0583
649 1 -8.07221 7.90896 -11.5938
650 1 -6.04043 10.0885 -11.8588
651 1 -5.95776 7.96203 -9.93644
652 1 -8.04118 10.0009 -10.1218
653 1 -4.10407 8.01397 -12.0616
654 1 -2.04657 9.88635 -11.9831
655 1 -1.90853 7.99362 -9.91788
656 1 -4.02854 10.0664 -10.0802
657 1 -15.7004 11.6101 -12.164
658 1 -13.7115 13.7209 -12.2005
659 1 -13.9314 11.8448 -10.0748
660 1 -15.5928 13.8206 -10.2565
661 1 -11.9316 11.6745 -12.0373
662 1 -9.87516 13.7272 -12.0094
663 1 -9.76661 11.9032 -9.99665
664 1 -11.9001 13.7103 -10.2077
665 1 -7.99059 11.8392 -12.0594
666 1 -6.09781 13.7727 -12.1761
667 1 -5.88768 12.0035 -9.90924
668 1 -7.77373 14.015 -10.0204
669 1 -3.91717 11.886 -12.0303
670 1 -1.98658 14.0166 -12.2075
671 1 -2.01757 11.671 -10.0135
672 1 -3.84118 13.7297 -10.1532
673 1 -16.0096 0.207539 -7.83097
674 1 -13.8535 2.02231 -7.75585
675 1 -13.8462 -0.0294671 -5.84119
676 1 -15.7719 2.10841 -5.77635
677 1 -12.0012 -0.323402 -7.86641
678 1 -9.98165 2.01216 -7.88435
679 1 -10.0696 -0.00640422 -5.94184
680 1 -11.9169 1.81373 -6.00746
681 1 -7.93642 0.0668028 -7.8064
682 1 -5.70271 1.94257 -7.99072
683 1 -5.93461 0.0792099 -5.87697
684 1 -7.83043 2.15252 -5.97227
685 1 -3.88393 0.00619919 -7.6841
686 1 -1.78855 2.00806 -7.90844
687 1 -1.87037 0.0903215 -6.10041
688 1 -3.81707 1.94318 -5.91035
689 1 -15.8558 4.02667 -7.75286
690 1 -13.9134 6.12632 -7.88919
691 1 -13.8213 4.25514 -5.91819
692 1 -15.9664 5.97546 -5.92174
693 1 -11.9248 3.99358 -7.81691
694 1 -9.95457 6.10268 -7.86459
695 1 -9.95235 4.15365 -5.86268
696 1 -11.7343 6.14738 -6.00841
697 1 -8.01739 3.96887 -7.82712
698 1 -5.87541 5.78833 -7.88707
699 1 -5.72708 3.78015 -5.95568
700 1 -7.94961 5.94385 -5.9416
701 1 -3.83281 4.04718 -7.9876
702 1 -1.81406 5.89824 -7.83946
703 1 -1.7796 3.79472 -6.00387
704 1 -3.8502 5.97712 -6.05509
705 1 -15.8004 7.97958 -8.29988
706 1 -13.8607 9.99502 -8.00829
707 1 -14.079 7.95508 -5.98535
708 1 -16.1391 9.88703 -6.08766
709 1 -12.0323 8.12029 -7.80595
710 1 -9.80872 10.0348 -7.86637
711 1 -9.82761 8.19825 -6.01489
712 1 -11.8916 10.0302 -5.61962
713 1 -8.1015 8.10267 -7.99309
714 1 -6.03013 9.81729 -8.02817
715 1 -6.1277 7.72413 -5.99931
716 1 -7.77079 10.0413 -5.94008
717 1 -4.12886 7.87344 -7.98095
718 1 -2.19719 9.88731 -8.01514
719 1 -1.93981 7.68711 -5.94301
720 1 -4.01927 9.84534 -5.95999
721 1 -15.7114 11.8596 -7.94915
722 1 -13.9822 13.6887 -7.96539
723 1 -13.9477 11.5643 -5.99808
724 1 -15.7745 13.9041 -5.90336
725 1 -11.8605 11.6003 -7.88234
726 1 -9.88282 13.936 -8.06596
727 1 -9.88742 11.8048 -5.95885
728 1 -12.0356 13.7052 -5.98785
729 1 -7.82423 12.0838 -7.8961
730 1 -5.96154 13.8287 -7.91637
731 1 -5.84771 12.053 -5.78303
732 1 -8.06594 13.7184 -5.83912
733 1 -3.94673 11.8428 -7.95505
734 1 -1.8275 13.7852 -7.95457
735 1 -2.08693 11.8047 -6.02016
736 1 -3.89676 13.8299 -5.91727
737 1 -15.9257 -0.11707 -3.87766
738 1 -13.7699 1.93588 -4.01123
739 1 -13.8151 -0.153089 -2.20597
740 1 -15.6844 2.04757 -2.08749
741 1 -11.7973 0.0253615 -4.03744
742 1 -9.83323 1.86202 -3.90912
743 1 -9.87404 -0.021137 -2.09917
744 1 -11.8388 1.98323 -2.02758
745 1 -7.76832 -0.0691275 -3.91245
746 1 -5.76476 1.91462 -3.83897
747 1 -5.76427 0.09651 -2.06746
748 1 -7.8462 2.08782 -2.18538
749 1 -3.7544 0.0270016 -4.02994
750 1 -1.83952 1.97698 -3.90962
751 1 -1.79439 -0.0398264 -1.75983
752 1 -3.67969 1.96405 -1.91246
753 1 -15.67 4.06606 -3.72285
754 1 -13.686 6.00826 -3.94469
755 1 -13.7124 3.92876 -1.9844
756 1 -15.718 5.97442 -1.90176
757 1 -11.7375 3.95862 -3.90634
758 1 -9.72887 6.22115 -3.88721
759 1 -9.84139 4.06467 -2.10687
760 1 -11.8011 5.85005 -2.08451
761 1 -7.99038 4.0021 -4.13829
762 1 -5.79287 5.82987 -4.13307
763 1 -5.95238 4.02728 -2.10325
764 1 -7.77698 5.94664 -2.18861
765 1 -3.83323 4.00936 -3.98093
766 1 -1.845 5.83963 -3.85497
767 1 -1.82123 3.89388 -2.10188
768 1 -3.91652 5.92278 -2.01359
769 1 -16.1042 7.82791 -3.93868
770 1 -13.902 9.81577 -4.01069
771 1 -13.9206 7.9529 -2.11959
772 1 -16.0665 9.84992 -2.02545
773 1 -11.7987 7.93443 -3.81788
774 1 -9.83891 9.91486 -3.98463
775 1 -9.98315 8.05076 -1.76186
776 1 -11.8559 10.0425 -2.15363
777 1 -7.97509 8.10046 -3.96298
778 1 -5.84822 10.0201 -3.97664
779 1 -5.85198 8.05833 -2.05606
780 1 -7.94205 9.79257 -1.86158
781 1 -4.12873 7.84345 -3.99718
782 1 -2.20148 9.66626 -4.00016
783 1 -2.10585 7.9223 -2.06483
784 1 -4.06662 9.99842 -1.89899
785 1 -15.8046 12.0154 -3.81624
786 1 -13.8743 13.8199 -3.99675
787 1 -13.6967 11.788 -2.14288
788 1 -15.8001 13.7605 -1.9378
789 1 -11.9009 12.1034 -4.13838
790 1 -9.89622 13.9602 -3.90647
791 1 -9.95354 12.0218 -2.02863
792 1 -11.7209 13.9717 -1.94369
793 1 -7.84914 11.9325 -3.64317
794 1 -5.77271 13.7478 -3.79449
795 1 -5.83068 11.7846 -1.76246
796 1 -7.89238 13.8357 -1.89458
797 1 -3.7932 11.8917 -3.86642
798 1 -1.96308 14.0809 -3.94405
799 1 -1.79679 12.0287 -1.96966
800 1 -3.79859 14.0688 -2.10676
801 1 -15.9389 -0.166065 -0.373596
802 1 -13.8061 1.87212 -0.275328
803 1 -11.8387 -0.149466 -0.299401
804 1 -9.75018 1.9119 -0.268095
805 1 -7.90929 0.0753837 -0.320827
806 1 -5.73061 2.04223 -0.399213
807 1 -4.10933 -0.015602 -0.0912329
808 1 -1.66919 2.26236 0.0996854
809 1 -15.6047 3.86569 -0.193759
810 1 -13.5878 6.14311 -0.153158
811 1 -11.78 3.92764 -0.00100028
812 1 -9.73057 6.01674 -0.391335
813 1 -7.84393 4.22052 -0.25476
814 1 -5.95829 6.13468 -0.209443
815 1 -3.8389 3.9272 -0.124705
816 1 -1.94907 5.73685 -0.181792
817 1 -15.7321 7.83063 0.155551
818 1 -14.0174 9.80281 -0.164428
819 1 -12.0585 8.16953 -0.154729
820 1 -9.86884 10.021 -0.0498191
821 1 -7.8147 7.85968 -0.0095132
822 1 -5.88474 9.74192 -0.0138449
823 1 -3.84498 8.02872 -0.130702
824 1 -1.8398 9.99054 -0.25634
825 1 -15.8207 11.5777 -0.226105
826 1 -13.8748 13.7403 -0.183371
827 1 -11.7503 11.9881 -0.125009
828 1 -9.94363 14.0619 -0.0222759
829 1 -8.02399 11.966 -0.111109
830 1 -6.14189 13.8213 -0.0894403
831 1 -4.01358 11.9916 -0.0883764
832 1 -2.02063 13.8007 0.041611
833 1 0 -15.84 -23.76
834 1 1.98 -13.86 -23.76
835 1 1.98 -15.84 -21.78
836 1 0 -13.86 -21.78
837 1 3.96 -15.84 -23.76
838 1 5.94 -13.86 -23.76
839 1 5.94 -15.84 -21.78
840 1 3.96 -13.86 -21.78
841 1 7.92 -15.84 -23.76
842 1 9.9 -13.86 -23.76
843 1 9.9 -15.84 -21.78
844 1 7.92 -13.86 -21.78
845 1 11.88 -15.84 -23.76
846 1 13.86 -13.86 -23.76
847 1 13.86 -15.84 -21.78
848 1 11.88 -13.86 -21.78
849 1 0 -11.88 -23.76
850 1 1.98 -9.9 -23.76
851 1 1.98 -11.88 -21.78
852 1 0 -9.9 -21.78
853 1 3.96 -11.88 -23.76
854 1 5.94 -9.9 -23.76
855 1 5.94 -11.88 -21.78
856 1 3.96 -9.9 -21.78
857 1 7.92 -11.88 -23.76
858 1 9.9 -9.9 -23.76
859 1 9.9 -11.88 -21.78
860 1 7.92 -9.9 -21.78
861 1 11.88 -11.88 -23.76
862 1 13.86 -9.9 -23.76
863 1 13.86 -11.88 -21.78
864 1 11.88 -9.9 -21.78
865 1 0 -7.92 -23.76
866 1 1.98 -5.94 -23.76
867 1 1.98 -7.92 -21.78
868 1 0 -5.94 -21.78
869 1 3.96 -7.92 -23.76
870 1 5.94 -5.94 -23.76
871 1 5.94 -7.92 -21.78
872 1 3.96 -5.94 -21.78
873 1 7.92 -7.92 -23.76
874 1 9.9 -5.94 -23.76
875 1 9.9 -7.92 -21.78
876 1 7.92 -5.94 -21.78
877 1 11.88 -7.92 -23.76
878 1 13.86 -5.94 -23.76
879 1 13.86 -7.92 -21.78
880 1 11.88 -5.94 -21.78
881 1 0 -3.96 -23.76
882 1 1.98 -1.98 -23.76
883 1 1.98 -3.96 -21.78
884 1 0 -1.98 -21.78
885 1 3.96 -3.96 -23.76
886 1 5.94 -1.98 -23.76
887 1 5.94 -3.96 -21.78
888 1 3.96 -1.98 -21.78
889 1 7.92 -3.96 -23.76
890 1 9.9 -1.98 -23.76
891 1 9.9 -3.96 -21.78
892 1 7.92 -1.98 -21.78
893 1 11.88 -3.96 -23.76
894 1 13.86 -1.98 -23.76
895 1 13.86 -3.96 -21.78
896 1 11.88 -1.98 -21.78
897 1 -0.0267858 -15.8181 -19.7792
898 1 1.96948 -14.0363 -19.8789
899 1 2.04017 -15.9429 -17.8455
900 1 -0.119862 -14.0604 -17.7306
901 1 3.95967 -15.8503 -19.777
902 1 5.92075 -13.8682 -19.9939
903 1 5.92401 -15.8172 -17.8148
904 1 3.8863 -14.0066 -17.8459
905 1 8.03988 -15.9489 -19.8092
906 1 9.84399 -13.8958 -19.8418
907 1 10.0165 -15.7114 -17.8862
908 1 7.71044 -13.979 -17.9033
909 1 12.0491 -15.7746 -19.8499
910 1 13.8745 -13.446 -19.7573
911 1 13.6717 -15.5305 -18.0426
912 1 11.8633 -13.5189 -17.9132
913 1 0.127089 -11.8848 -19.8907
914 1 2.17922 -9.77964 -19.8701
915 1 2.12402 -11.9734 -17.8792
916 1 0.00874116 -9.91962 -17.9068
917 1 4.03887 -11.9282 -19.6173
918 1 6.07202 -9.97549 -19.7666
919 1 5.99158 -11.8708 -17.5131
920 1 3.99317 -9.94799 -17.7972
921 1 7.8494 -11.9391 -19.9575
922 1 9.90489 -9.89309 -19.8252
923 1 9.49671 -12.0053 -17.9139
924 1 7.97667 -9.9484 -17.8047
925 1 11.7333 -11.7981 -19.7424
926 1 13.8472 -9.82721 -19.9984
927 1 14.0234 -11.518 -17.9084
928 1 11.6845 -9.93286 -17.6862
929 1 0.142247 -8.08331 -19.8487
930 1 1.90813 -6.01922 -19.8326
931 1 2.11362 -7.74017 -17.5807
932 1 0.115901 -5.88652 -17.9745
933 1 3.87325 -7.77718 -19.8763
934 1 6.24399 -5.98685 -20.0872
935 1 5.99589 -7.78972 -18.0001
936 1 4.17811 -5.84769 -18.0421
937 1 7.94913 -7.9871 -19.89
938 1 9.99179 -5.76079 -19.7818
939 1 9.56844 -8.03477 -17.8948
940 1 8.00218 -5.80361 -17.8747
941 1 11.7399 -8.14039 -19.7157
942 1 13.6014 -5.9156 -19.865
943 1 13.8171 -7.88283 -17.783
944 1 11.6522 -5.97305 -17.6784
945 1 -0.106434 -3.98311 -19.9599
946 1 1.79896 -2.08294 -19.5805
947 1 2.03587 -3.88348 -17.7709
948 1 0.0345996 -1.97961 -17.8597
949 1 3.97361 -4.0048 -20.0234
950 1 5.95311 -1.90976 -19.9319
951 1 5.79111 -3.79739 -17.9408
952 1 4.01445 -1.95621 -18.0395
953 1 7.96781 -3.93434 -19.6662
954 1 9.90591 -1.95619 -19.7575
955 1 9.81838 -3.96072 -17.8573
956 1 7.95093 -1.81998 -18.0299
957 1 11.8729 -3.85662 -19.9765
958 1 13.9887 -1.98693 -20.0196
959 1 13.9885 -3.77181 -17.9672
960 1 11.8269 -2.21332 -17.7674
961 1 0.111742 -15.8517 -15.8526
962 1 1.94307 -13.8858 -15.8585
963 1 2.09154 -15.9728 -14.0255
964 1 -0.0282118 -14.1476 -13.7957
965 1 4.09312 -15.9832 -15.7727
966 1 5.79672 -13.9936 -15.7392
967 1 6.05996 -15.7292 -13.7416
968 1 4.03018 -13.8076 -13.8072
969 1 7.91899 -15.6711 -15.8867