ITEM: TIMESTEP
1000
ITEM: NUMBER OF ATOMS
1665
ITEM: BOX BOUNDS pp pp ss
-1.6000000000000000e+01 1.6000000000000000e+01
-1.6000000000000000e+01 1.6000000000000000e+01
-2.4002800000000001e+01 3.5452925975987739e+00
ITEM: ATOMS id type xu yu zu
1 1 -16 -16 -24
2 1 -14 -14 -24
3 1 -14 -16 -22
4 1 -16 -14 -22
5 1 -12 -16 -24
6 1 -10 -14 -24
7 1 -10 -16 -22
8 1 -12 -14 -22
9 1 -8 -16 -24
10 1 -6 -14 -24
11 1 -6 -16 -22
12 1 -8 -14 -22
13 1 -4 -16 -24
14 1 -2 -14 -24
15 1 -2 -16 -22
16 1 -4 -14 -22
17 1 -16 -12 -24
18 1 -14 -10 -24
19 1 -14 -12 -22
20 1 -16 -10 -22
21 1 -12 -12 -24
22 1 -10 -10 -24
23 1 -10 -12 -22
24 1 -12 -10 -22
25 1 -8 -12 -24
26 1 -6 -10 -24
27 1 -6 -12 -22
28 1 -8 -10 -22
29 1 -4 -12 -24
30 1 -2 -10 -24
31 1 -2 -12 -22
32 1 -4 -10 -22
33 1 -16 -8 -24
34 1 -14 -6 -24
35 1 -14 -8 -22
36 1 -16 -6 -22
37 1 -12 -8 -24
38 1 -10 -6 -24
39 1 -10 -8 -22
40 1 -12 -6 -22
41 1 -8 -8 -24
42 1 -6 -6 -24
43 1 -6 -8 -22
44 1 -8 -6 -22
45 1 -4 -8 -24
46 1 -2 -6 -24
47 1 -2 -8 -22
48 1 -4 -6 -22
49 1 -16 -4 -24
50 1 -14 -2 -24
51 1 -14 -4 -22
52 1 -16 -2 -22
53 1 -12 -4 -24
54 1 -10 -2 -24
55 1 -10 -4 -22
56 1 -12 -2 -22
57 1 -8 -4 -24
58 1 -6 -2 -24
59 1 -6 -4 -22
60 1 -8 -2 -22
61 1 -4 -4 -24
62 1 -2 -2 -24
63 1 -2 -4 -22
64 1 -4 -2 -22
65 1 -15.9651 -15.9799 -19.715
66 1 -14.1358 -13.9429 -19.6455
67 1 -14.0062 -16.1631 -17.6235
68 1 -15.9545 -14.0619 -17.5709
69 1 -11.9449 -15.9269 -19.8191
70 1 -10.1756 -13.8624 -19.6058
71 1 -10.1108 -15.8244 -17.6182
72 1 -11.9798 -14.0055 -17.4357
73 1 -8.08189 -15.927 -19.5609
74 1 -6.03735 -13.9236 -19.7799
75 1 -5.95173 -15.9586 -17.5172
76 1 -8.163 -13.9528 -17.676
77 1 -4.13164 -16.0769 -19.6517
78 1 -2.08045 -14.0754 -19.648
79 1 -2.02659 -16.0795 -17.5531
80 1 -4.00618 -14.0352 -17.496
81 1 -16.0275 -12.0201 -19.6579
82 1 -13.8431 -10.1797 -19.812
83 1 -14.0525 -11.9684 -17.5344
84 1 -15.9198 -9.9095 -17.4291
85 1 -12.145 -12.1062 -19.8032
86 1 -9.95945 -9.95713 -19.863
87 1 -10.0386 -11.9591 -17.4743
88 1 -11.9584 -10.0903 -17.4284
89 1 -7.97879 -11.9493 -19.7167
90 1 -6.09726 -10.0369 -19.8792
91 1 -5.97711 -12.0507 -17.562
92 1 -7.89415 -10.0548 -17.6468
93 1 -4.08467 -12.0083 -19.7475
94 1 -1.91603 -10.1991 -19.6469
95 1 -2.14463 -11.9997 -17.444
96 1 -4.08046 -10.0975 -17.5134
97 1 -16.0282 -8.17497 -19.6346
98 1 -13.9214 -6.10011 -19.689
99 1 -13.8983 -7.9785 -17.529
100 1 -15.9651 -5.94156 -17.6282
101 1 -12.0619 -8.11167 -19.7444
102 1 -9.82601 -5.98871 -19.6303
103 1 -9.98593 -8.03315 -17.5788
104 1 -11.9975 -6.19612 -17.5056
105 1 -8.01007 -7.95764 -19.8061
106 1 -5.84811 -6.13246 -19.6109
107 1 -5.86713 -7.94739 -17.4398
108 1 -7.87804 -6.04302 -17.6751
109 1 -3.77675 -8.01145 -19.8207
110 1 -1.9408 -5.89822 -19.8449
111 1 -1.83033 -8.24401 -17.4419
112 1 -3.71003 -5.98856 -17.6181
113 1 -15.9818 -3.92065 -19.8405
114 1 -13.9348 -2.04886 -19.5717
115 1 -14.0313 -4.11735 -17.4122
116 1 -16.0587 -1.87487 -17.4787
117 1 -12.1564 -4.18482 -19.5256
118 1 -9.8826 -1.96458 -19.6912
119 1 -10.0755 -4.23927 -17.3579
120 1 -11.9249 -2.11142 -17.3647
121 1 -7.84748 -3.92519 -19.7061
122 1 -6.03632 -2.00772 -19.8574
123 1 -5.88501 -4.18289 -17.6328
124 1 -7.82608 -2.02026 -17.5729
125 1 -4.00453 -3.9588 -19.7746
126 1 -1.94638 -2.14179 -19.5574
127 1 -1.9387 -3.95256 -17.5759
128 1 -4.05859 -2.01659 -17.5324
129 1 -16.1783 -16.0931 -15.3012
130 1 -14.0306 -14.0219 -15.2583
131 1 -14.0545 -15.9294 -13.1108
132 1 -16.0988 -13.9904 -13.1337
133 1 -12.1492 -16.3026 -15.2629
134 1 -10.0829 -14.0485 -15.2052
135 1 -10.0102 -15.9251 -13.027
136 1 -12.017 -13.9597 -13.0572
137 1 -8.07641 -15.9484 -15.2304
138 1 -6.04519 -13.9921 -15.2549
139 1 -5.96792 -15.9936 -13.0243
140 1 -7.98993 -13.9978 -13.0309
141 1 -4.05037 -16.0795 -15.1455
142 1 -2.02685 -13.8814 -15.2455
143 1 -2.00349 -15.9783 -12.937
144 1 -3.99894 -14.0399 -13.0492
145 1 -15.8277 -11.7672 -15.1562
146 1 -13.8738 -9.81541 -15.3255
147 1 -13.9629 -12.001 -13.0528
148 1 -16.0462 -9.99196 -13.0732
149 1 -11.9527 -11.9315 -15.159
150 1 -10.1242 -9.93505 -15.3348
151 1 -10.0604 -11.985 -13.0896
152 1 -11.9979 -9.9759 -12.9924
153 1 -8.03417 -12.0129 -15.2927
154 1 -6.18634 -10.0122 -15.4588
155 1 -5.96295 -11.9965 -13.0357
156 1 -8.01348 -10.044 -13.0491
157 1 -4.07227 -12.202 -15.1066
158 1 -1.9816 -9.96088 -15.1224
159 1 -1.99749 -12.0233 -13.0853
160 1 -3.9525 -9.96575 -13.0509
161 1 -15.9012 -8.02652 -15.1
162 1 -13.8494 -5.958 -15.4182
163 1 -14.0505 -8.0754 -13.0158
164 1 -16.0598 -6.01671 -12.9814
165 1 -12.0393 -7.91016 -15.1751
166 1 -10.061 -6.03717 -15.4144
167 1 -10.0278 -8.02081 -13.0371
168 1 -11.9643 -6.05627 -12.976
169 1 -8.03264 -8.03251 -15.331
170 1 -6.11591 -6.12272 -15.3418
171 1 -5.98026 -8.0275 -13.1137
172 1 -7.97067 -5.9901 -13.0436
173 1 -3.98769 -8.05507 -15.292
174 1 -1.98401 -6.12176 -15.3532
175 1 -2.01568 -7.98438 -13.0458
176 1 -3.96138 -6.01954 -13.0354
177 1 -15.9442 -3.92679 -15.2789
178 1 -14.1277 -1.91453 -15.1416
179 1 -13.9825 -3.96218 -12.9313
180 1 -15.9693 -1.96942 -13.0812
181 1 -12.0424 -4.08226 -15.3118
182 1 -9.88714 -2.01035 -15.2099
183 1 -9.99033 -3.99374 -13.0203
184 1 -12.0454 -1.96912 -12.9988
185 1 -8.15172 -4.03881 -15.3425
186 1 -6.16667 -2.15826 -15.1452
187 1 -5.93422 -3.98177 -13.0104
188 1 -7.9895 -2.06832 -13.0167
189 1 -4.05113 -3.99176 -15.3236
190 1 -1.92557 -2.12352 -15.1892
191 1 -1.99325 -3.96722 -13.0259
192 1 -4.00648 -1.98864 -13.0184
193 1 -16.0212 -16.0344 -10.8457
194 1 -14.0313 -13.964 -10.8037
195 1 -11.9976 -15.9877 -10.7761
196 1 -9.99161 -14.002 -10.7818
197 1 -8.027 -16.0067 -10.737
198 1 -6.055 -14.0156 -10.7803
199 1 -4.02387 -15.9768 -10.8265
200 1 -2.00473 -13.9882 -10.8464
201 1 -16.0091 -12.0517 -10.8207
202 1 -14.0013 -10.0297 -10.8424
203 1 -11.9844 -11.9936 -10.8664
204 1 -9.98635 -10.007 -10.8668
205 1 -7.98485 -11.9997 -10.8776
206 1 -5.95399 -9.99767 -10.8295
207 1 -4.01924 -12.0047 -10.7965
208 1 -2.01935 -10.005 -10.8379
209 1 -15.9929 -8.05986 -10.7965
210 1 -14.0265 -6.02635 -10.7945
211 1 -12.0152 -7.98072 -10.7707
212 1 -9.96661 -6.02979 -10.8414
213 1 -7.94494 -8.0162 -10.8662
214 1 -5.97266 -6.06597 -10.824
215 1 -4.00145 -8.02244 -10.839
216 1 -1.97693 -6.02885 -10.8254
217 1 -16.01 -3.99613 -10.821
218 1 -14.0013 -2.02389 -10.8327
219 1 -12.0164 -4.00456 -10.7675
220 1 -10.0065 -2.01768 -10.8387
221 1 -7.96104 -4.05567 -10.8123
222 1 -5.92573 -2.03744 -10.8053
223 1 -3.98237 -4.05607 -10.8619
224 1 -1.98921 -1.98247 -10.765
225 1 -14.0086 -16.0137 -8.65462
226 1 -15.994 -14.0166 -8.68967
227 1 -9.97838 -16.0181 -8.61688
228 1 -11.9892 -14.0148 -8.62512
229 1 -5.9762 -16.023 -8.64821
230 1 -7.99063 -13.9643 -8.6323
231 1 -1.98687 -16.0521 -8.65214
232 1 -3.9938 -14.0008 -8.61565
233 1 -13.9469 -11.9775 -8.67845
234 1 -15.9767 -10.0134 -8.61962
235 1 -9.97362 -12.0069 -8.59681
236 1 -12.0192 -10.0354 -8.61519
237 1 -6.02965 -11.9761 -8.65999
238 1 -8.01216 -10.0148 -8.65013
239 1 -1.98446 -11.9677 -8.67401
240 1 -4.00042 -10.0009 -8.66302
241 1 -13.9615 -7.99314 -8.62311
242 1 -16.0223 -5.98378 -8.58217
243 1 -9.98192 -8.02231 -8.63032
244 1 -11.9703 -5.99723 -8.61193
245 1 -6.01772 -8.02085 -8.60959
246 1 -7.98598 -6.00167 -8.66956
247 1 -2.0242 -7.99979 -8.70806
248 1 -4.066 -6.00611 -8.63403
249 1 -13.993 -3.99502 -8.68014
250 1 -15.9343 -2.00894 -8.60703
251 1 -9.99941 -4.02432 -8.66413
252 1 -12.0002 -2.01366 -8.65837
253 1 -6.00581 -4.00066 -8.68359
254 1 -7.98895 -2.0258 -8.70418
255 1 -2.03892 -3.99947 -8.67573
256 1 -3.98645 -1.98621 -8.58509
257 1 -15.9928 -15.9761 -6.52139
258 1 -13.9897 -14.0132 -6.49892
259 1 -13.9861 -16.0163 -4.34388
260 1 -15.9992 -14.0232 -4.36099
261 1 -11.9812 -15.9951 -6.49408
262 1 -9.99961 -14.0045 -6.51787
263 1 -9.95615 -15.9677 -4.36115
264 1 -11.9494 -13.9754 -4.35106
265 1 -7.99416 -16.0135 -6.48767
266 1 -5.99163 -14.0316 -6.45815
267 1 -5.9795 -15.9935 -4.34168
268 1 -7.97865 -13.9788 -4.35771
269 1 -3.97771 -15.9941 -6.49527
270 1 -1.92996 -14.0306 -6.52221
271 1 -2.00766 -15.9935 -4.33003
272 1 -3.95144 -14.0104 -4.35224
273 1 -15.9808 -12.0118 -6.54858
274 1 -14.019 -9.97058 -6.49519
275 1 -14.0086 -12.0367 -4.309
276 1 -16.0209 -10.0339 -4.35889
277 1 -12.0238 -11.9712 -6.51674
278 1 -10.008 -9.98906 -6.51029
279 1 -9.971 -12.0083 -4.34935
280 1 -11.9999 -10.0531 -4.27404
281 1 -7.99924 -12.0072 -6.49814
282 1 -5.97561 -10.0292 -6.52271
283 1 -5.94027 -12.0323 -4.37379
284 1 -7.97064 -10.0329 -4.3168
285 1 -3.94219 -12.062 -6.50633
286 1 -1.97546 -10.0481 -6.46128
287 1 -1.97098 -12.0351 -4.28674
288 1 -3.98384 -10.0185 -4.33698
289 1 -16.0077 -7.96514 -6.48802
290 1 -14.0203 -6.02866 -6.44231
291 1 -14.0089 -8.0336 -4.34804
292 1 -15.977 -5.97454 -4.28963
293 1 -11.9881 -7.98146 -6.4238
294 1 -9.96279 -6.05656 -6.44606
295 1 -9.99727 -8.04134 -4.29816
296 1 -11.9829 -6.01788 -4.31236
297 1 -7.97697 -8.04084 -6.47805
298 1 -5.98107 -6.05238 -6.47913
299 1 -5.95876 -8.02863 -4.30378
300 1 -7.99793 -6.02129 -4.30777
301 1 -3.97806 -8.02254 -6.47918
302 1 -2.01282 -6.0232 -6.48325
303 1 -1.9842 -8.0283 -4.31333
304 1 -3.99247 -5.98961 -4.31915
305 1 -16.0186 -4.02661 -6.45973
306 1 -13.9923 -2.00504 -6.45692
307 1 -13.9757 -3.9831 -4.2818
308 1 -16.0275 -1.98442 -4.31586
309 1 -12.0103 -3.99843 -6.46005
310 1 -9.95757 -2.00573 -6.46639
311 1 -9.97774 -4.01901 -4.27958
312 1 -11.9801 -2.01181 -4.29944
313 1 -7.97735 -4.06513 -6.51747
314 1 -6.0001 -2.01996 -6.52651
315 1 -5.98328 -3.99964 -4.31637
316 1 -7.99004 -2.062 -4.30505
317 1 -3.97311 -4.00373 -6.50948
318 1 -1.99977 -1.96478 -6.52068
319 1 -1.98298 -3.96948 -4.30325
320 1 -3.98487 -2.00738 -4.32611
321 1 -15.991 -16.0386 -2.12717
322 1 -13.9866 -14.0398 -2.16416
323 1 -14.0021 -16.0216 -0.00588151
324 1 -15.9855 -14.0112 -0.0129929
325 1 -11.9681 -16.0006 -2.19649
326 1 -9.96656 -14.0078 -2.15563
327 1 -10.0033 -16.0174 0.0191943
328 1 -12.0201 -14.0135 0.0172063
329 1 -8.00725 -15.968 -2.20927
330 1 -5.98154 -13.9768 -2.25056
331 1 -6.01906 -15.9776 0.00136875
332 1 -8.00338 -13.975 0.0310026
333 1 -4.01498 -15.9818 -2.18817
334 1 -2.04201 -14.0029 -2.18247
335 1 -2.00847 -15.9864 -0.0103998
336 1 -4.02714 -13.9635 0.000825199
337 1 -15.9867 -12.016 -2.19808
338 1 -14.0198 -9.99996 -2.19036
339 1 -13.992 -12.0063 0.0428513
340 1 -16.0146 -10.0223 0.0231265
341 1 -11.9591 -12.0656 -2.17965
342 1 -9.9865 -10.0265 -2.17831
343 1 -9.99422 -11.983 0.0327692
344 1 -11.988 -9.98909 0.0365329
345 1 -7.95184 -11.9868 -2.19058
346 1 -6.01838 -9.96489 -2.16739
347 1 -6.02021 -11.96 0.0214559
348 1 -8.01381 -9.96478 0.0113465
349 1 -4.01927 -11.9282 -2.18012
350 1 -2.04517 -9.98665 -2.17677
351 1 -2.01094 -11.9947 -0.0295041
352 1 -4.02284 -10.0012 -0.00688115
353 1 -15.9679 -8.03054 -2.1361
354 1 -13.9926 -6.01497 -2.12327
355 1 -14.0041 -7.97862 0.0141916
356 1 -16.0272 -5.99478 -0.000168055
357 1 -12.0004 -8.04864 -2.15149
358 1 -10.0242 -5.99851 -2.14295
359 1 -9.97828 -7.97966 0.00280394
360 1 -11.9824 -5.99405 -0.0143408
361 1 -7.99658 -8.00688 -2.18235
362 1 -6.01876 -6.01266 -2.18903
363 1 -6.01645 -7.98335 -0.00737515
364 1 -8.00158 -5.99836 -0.00961561
365 1 -4.03686 -8.00135 -2.12482
366 1 -2.01864 -5.99156 -2.17875
367 1 -1.98971 -8.00124 0.0128948
368 1 -4.00457 -6.00493 0.0202417
369 1 -15.9786 -3.99477 -2.17233
370 1 -14.0002 -1.99624 -2.19922
371 1 -13.997 -4.00124 -0.00470101
372 1 -16.0203 -1.98928 -0.0218165
373 1 -11.99 -4.01983 -2.18462
374 1 -10.0184 -2.00953 -2.16334
375 1 -10.0066 -4.01383 0.0114021
376 1 -12.0089 -2.00561 -0.0186111
377 1 -7.99196 -4.00098 -2.16334
378 1 -5.99328 -2.00997 -2.17269
379 1 -6.029 -4.00315 0.0403712
380 1 -8.00251 -2.02284 0.0217766
381 1 -4.01835 -4.0323 -2.16219
382 1 -2.0267 -2.03059 -2.11961
383 1 -2.0059 -4.02041 0.0308597
384 1 -4.00914 -1.99977 0.0445786
385 1 -16.0516 -15.9952 2.01936
386 1 -14.0039 -14.0145 2.0628
387 1 -11.9984 -16.0005 2.04025
388 1 -9.98915 -14.0238 2.04502
389 1 -7.9579 -16.0266 2.02757
390 1 -5.97199 -13.9986 2.05284
391 1 -3.98562 -16.018 2.02499
392 1 -2.00429 -13.9779 2.0272
393 1 -16.0148 -11.9891 2.03724
394 1 -13.9964 -9.99246 2.01529
395 1 -11.9789 -12.0392 2.04537
396 1 -9.95273 -10.0045 2.0585
397 1 -7.99697 -12.0181 2.0594
398 1 -5.97051 -10.0005 2.08107
399 1 -3.99326 -11.9771 2.05355
400 1 -2.03593 -9.99934 2.04547
401 1 -15.9993 -7.98756 2.03147
402 1 -13.9778 -5.98651 2.03985
403 1 -11.9959 -7.96454 2.04196
404 1 -9.99943 -6.01433 2.0704
405 1 -7.96638 -7.99983 2.05857
406 1 -5.98559 -6.03668 2.04729
407 1 -3.9991 -8.04591 2.05061
408 1 -1.98958 -6.02489 2.04465
409 1 -15.9638 -3.98233 2.01256
410 1 -13.98 -2.01535 2.00479
411 1 -12.0085 -3.99939 2.05262
412 1 -10.0155 -2.02909 2.03248
413 1 -8.02876 -4.03255 2.04938
414 1 -5.98662 -1.99403 2.04893
415 1 -3.99012 -4.02871 2.03501
416 1 -1.97716 -2.04917 2.08755
417 1 -16 0 -24
418 1 -14 2 -24
419 1 -14 0 -22
420 1 -16 2 -22
421 1 -12 0 -24
422 1 -10 2 -24
423 1 -10 0 -22
424 1 -12 2 -22
425 1 -8 0 -24
426 1 -6 2 -24
427 1 -6 0 -22
428 1 -8 2 -22
429 1 -4 0 -24
430 1 -2 2 -24
431 1 -2 0 -22
432 1 -4 2 -22
433 1 -16 4 -24
434 1 -14 6 -24
435 1 -14 4 -22
436 1 -16 6 -22
437 1 -12 4 -24
438 1 -10 6 -24
439 1 -10 4 -22
440 1 -12 6 -22
441 1 -8 4 -24
442 1 -6 6 -24
443 1 -6 4 -22
444 1 -8 6 -22
445 1 -4 4 -24
446 1 -2 6 -24
447 1 -2 4 -22
448 1 -4 6 -22
449 1 -16 8 -24
450 1 -14 10 -24
451 1 -14 8 -22
452 1 -16 10 -22
453 1 -12 8 -24
454 1 -10 10 -24
455 1 -10 8 -22
456 1 -12 10 -22
457 1 -8 8 -24
458 1 -6 10 -24
459 1 -6 8 -22
460 1 -8 10 -22
461 1 -4 8 -24
462 1 -2 10 -24
463 1 -2 8 -22
464 1 -4 10 -22
465 1 -16 12 -24
466 1 -14 14 -24
467 1 -14 12 -22
468 1 -16 14 -22
469 1 -12 12 -24
470 1 -10 14 -24
471 1 -10 12 -22
472 1 -12 14 -22
473 1 -8 12 -24
474 1 -6 14 -24
475 1 -6 12 -22
476 1 -8 14 -22
477 1 -4 12 -24
478 1 -2 14 -24
479 1 -2 12 -22
480 1 -4 14 -22
481 1 -15.9621 -0.0564757 -19.5948
482 1 -14.098 1.92246 -19.7394
483 1 -13.9352 0.167425 -17.433
484 1 -16.0875 1.96766 -17.5297
485 1 -11.9816 -0.112622 -19.5123
486 1 -9.94074 2.0489 -19.7301
487 1 -9.969 -0.0738746 -17.515
488 1 -11.865 1.98809 -17.5003
489 1 -7.84211 0.0266461 -19.7796
490 1 -5.94788 2.09468 -19.7958
491 1 -5.95553 0.0679557 -17.5928
492 1 -8.01281 1.93516 -17.4735
493 1 -3.85855 0.054789 -19.5721
494 1 -2.02396 1.90762 -19.792
495 1 -2.0638 -0.0620328 -17.3681
496 1 -3.98322 2.02168 -17.4898
497 1 -16.0123 4.0836 -19.8484
498 1 -14.0102 5.89765 -19.6105
499 1 -14.0913 3.9184 -17.3654
500 1 -15.9593 5.88014 -17.5279
501 1 -11.931 4.00834 -19.78
502 1 -10.139 5.98386 -19.7128
503 1 -10.0534 3.87097 -17.5367
504 1 -12.0591 5.92139 -17.4867
505 1 -8.04238 4.08374 -19.6452
506 1 -6.02799 5.96775 -19.7886
507 1 -6.12782 3.85132 -17.4935
508 1 -8.02346 6.10974 -17.429
509 1 -4.07028 4.12943 -19.7092
510 1 -2.16522 6.1467 -19.5921
511 1 -2.08503 4.07454 -17.4614
512 1 -3.89254 5.94658 -17.4256
513 1 -16.0673 7.99952 -19.892
514 1 -13.8063 10.0374 -19.7379
515 1 -13.9581 8.06629 -17.3799
516 1 -16.0533 9.9987 -17.6056
517 1 -11.9592 8.12463 -19.8267
518 1 -9.87156 10.11 -19.6511
519 1 -9.86156 8.15476 -17.4006
520 1 -11.8207 9.9172 -17.5122
521 1 -7.87047 7.97631 -19.7573
522 1 -6.04233 10.1925 -19.8088
523 1 -6.06763 8.01107 -17.3122
524 1 -7.91927 9.99044 -17.3968
525 1 -3.97069 7.9546 -19.7345
526 1 -2.06175 9.9197 -19.7275
527 1 -1.91465 8.02955 -17.6219
528 1 -3.93359 10.0406 -17.401
529 1 -15.766 12.0559 -19.6128
530 1 -13.9264 13.855 -19.743
531 1 -13.8687 11.9073 -17.5468
532 1 -15.9872 14.001 -17.5079
533 1 -11.799 12.0186 -19.8094
534 1 -9.98316 14.1396 -19.9066
535 1 -10.0457 12.0668 -17.5522
536 1 -11.8406 14.0347 -17.4523
537 1 -8.10316 11.9817 -19.7032
538 1 -5.82899 13.9694 -19.5593
539 1 -6.0569 11.9039 -17.6233
540 1 -7.9432 13.908 -17.4419
541 1 -3.93569 12.0216 -19.5472
542 1 -2.12946 13.901 -19.8009
543 1 -2.03595 11.7931 -17.6994
544 1 -4.0496 13.8171 -17.5093
545 1 -16.0848 -0.0659524 -15.4
546 1 -14.1139 2.08772 -15.2161
547 1 -13.98 0.0399194 -13.0353
548 1 -15.8969 1.92634 -13.0404
549 1 -11.9616 -0.0672817 -15.2457
550 1 -10.0844 2.02806 -15.111
551 1 -10.0036 -0.0778833 -12.9777
552 1 -12.0502 1.97388 -13.0573
553 1 -8.0816 -0.0437623 -15.1748
554 1 -6.06629 1.86736 -15.331
555 1 -6.01765 0.0453501 -13.0581
556 1 -7.99425 2.00497 -13.0255
557 1 -3.9128 0.017943 -15.3443
558 1 -1.9967 2.09668 -15.3914
559 1 -2.04563 -0.0218511 -13.0302
560 1 -3.97548 1.96112 -12.9576
561 1 -16.0263 4.10934 -15.3151
562 1 -14.1648 5.94249 -15.2908
563 1 -13.9489 3.92861 -12.9947
564 1 -16.0398 5.87983 -13.0073
565 1 -12.196 3.91505 -15.1874
566 1 -9.99057 5.98737 -15.3364
567 1 -9.98187 3.96811 -13.0339
568 1 -11.9295 5.92179 -13.074
569 1 -8.09341 3.93274 -15.3188
570 1 -6.03827 5.85142 -15.1245
571 1 -6.0262 4.00088 -12.9797
572 1 -7.95836 5.99373 -13.0378
573 1 -4.17553 4.10619 -15.3229
574 1 -2.06173 5.91508 -15.3591
575 1 -1.94779 4.03227 -13.017
576 1 -4.05758 6.08901 -13.0436
577 1 -15.9498 8.0675 -15.3256
578 1 -13.9917 10.0284 -15.138
579 1 -14.0102 7.92637 -13.0274
580 1 -15.9423 10.0038 -13.0321
581 1 -11.9743 8.20167 -15.3053
582 1 -9.89826 10.0114 -15.2064
583 1 -9.95912 8.00779 -12.9988
584 1 -12.0578 10.0125 -12.9728
585 1 -8.0625 7.95159 -15.1797
586 1 -5.87801 9.88891 -15.3477
587 1 -6.0667 7.95969 -13.0025
588 1 -8.06166 9.9808 -13.0736
589 1 -3.93584 7.83149 -15.293
590 1 -2.04241 10.0659 -15.2738
591 1 -2.05332 8.00958 -13.0429
592 1 -3.979 9.94901 -13.0179
593 1 -16.1121 12.0321 -15.192
594 1 -13.9748 13.7956 -15.3005
595 1 -13.9894 12.0092 -13.0681
596 1 -16.013 14.0389 -13.0635
597 1 -11.9159 12.0988 -15.4388
598 1 -10.0593 14.0994 -15.1368
599 1 -10.003 11.9989 -13.0751
600 1 -11.9161 14.082 -12.9904
601 1 -7.93277 11.9408 -15.3327
602 1 -5.95104 13.9849 -15.4274
603 1 -6.04263 12.0263 -13.0059
604 1 -8.04198 13.9906 -13.011
605 1 -4.11063 11.9117 -15.3093
606 1 -1.92317 13.975 -15.2393
607 1 -2.03622 11.9842 -13.0081
608 1 -3.97407 14.0305 -12.9673
609 1 -15.9714 0.00290615 -10.8445
610 1 -14.0079 2.01276 -10.8472
611 1 -12.0021 -0.00936879 -10.8363
612 1 -9.96562 1.98084 -10.8675
613 1 -7.9959 -0.0578438 -10.834
614 1 -5.99691 1.95964 -10.8472
615 1 -3.98127 -0.0254244 -10.8755
616 1 -1.98509 1.98937 -10.8303
617 1 -15.9652 4.00965 -10.8052
618 1 -13.9523 5.98084 -10.8142
619 1 -11.9857 3.9817 -10.8472
620 1 -9.9903 5.97271 -10.8717
621 1 -7.94699 3.95637 -10.7787
622 1 -5.98001 6.02937 -10.8257
623 1 -3.96528 3.99886 -10.8576
624 1 -1.98446 6.02657 -10.869
625 1 -15.9542 7.96473 -10.8617
626 1 -13.9697 9.99918 -10.856
627 1 -11.9755 7.96637 -10.8362
628 1 -9.99578 10.0169 -10.8528
629 1 -8.01289 8.02157 -10.7986
630 1 -6.02654 9.97692 -10.7955
631 1 -3.99039 7.98577 -10.8487
632 1 -2.00596 10.0016 -10.8061
633 1 -15.9377 12.0063 -10.8105
634 1 -13.9844 14.0477 -10.8241
635 1 -11.9894 11.9595 -10.8202
636 1 -10.0005 13.9885 -10.7781
637 1 -8.00369 11.978 -10.8816
638 1 -6.03278 14.0266 -10.8729
639 1 -4.03107 11.9811 -10.8393
640 1 -1.95372 13.9914 -10.872
641 1 -14.0029 -0.0246932 -8.5734
642 1 -16.0029 1.97324 -8.59329
643 1 -10.016 -0.0159724 -8.6698
644 1 -12.0334 1.99853 -8.68701
645 1 -6.03643 -0.0138273 -8.68262
646 1 -8.02079 1.9951 -8.63349
647 1 -2.01605 0.0146327 -8.6766
648 1 -4.05071 1.96319 -8.6803
649 1 -13.9969 4.01801 -8.64823
650 1 -16.055 6.00034 -8.6267
651 1 -10.0149 4.04479 -8.69846
652 1 -12.0171 6.0056 -8.67945
653 1 -5.96725 4.00513 -8.68705
654 1 -8.02329 5.99454 -8.65165
655 1 -2.02393 4.02393 -8.65787
656 1 -3.99141 5.9952 -8.67067
657 1 -14.0265 8.01967 -8.6561
658 1 -15.9946 10.0143 -8.61027
659 1 -10.01 8.00822 -8.68267
660 1 -12.0085 10.0194 -8.63769
661 1 -5.97135 7.97401 -8.61255
662 1 -7.99265 10.0277 -8.64949
663 1 -1.97753 7.97405 -8.62992
664 1 -3.96689 10.0396 -8.6956
665 1 -14.0144 12.0172 -8.63285
666 1 -15.9899 13.9486 -8.64122
667 1 -9.9794 12.0184 -8.61698
668 1 -12.0413 13.9755 -8.62556
669 1 -5.96623 12.041 -8.68452
670 1 -7.95558 13.9774 -8.63911
671 1 -1.96397 12.008 -8.63502
672 1 -3.95049 14.0308 -8.67466
673 1 -16.0187 -0.0141985 -6.4474
674 1 -13.9757 1.98353 -6.52644
675 1 -14.0142 -0.0188365 -4.29466
676 1 -15.9953 1.96108 -4.32777
677 1 -11.9815 -0.0299176 -6.43839
678 1 -10.0299 1.96111 -6.4666
679 1 -9.97052 -0.0241636 -4.32032
680 1 -11.9865 2.01857 -4.28906
681 1 -8.02098 -0.0246715 -6.49203
682 1 -6.02282 1.98708 -6.48744
683 1 -5.97747 -0.027947 -4.29956
684 1 -7.96246 1.95665 -4.26143
685 1 -4.03466 0.00454815 -6.47478
686 1 -2.00931 1.98677 -6.51371
687 1 -2.02987 0.00856311 -4.26028
688 1 -3.96864 1.99505 -4.30205
689 1 -15.9483 3.96898 -6.50301
690 1 -13.9866 6.01178 -6.49032
691 1 -13.9861 3.99524 -4.31494
692 1 -15.9684 5.99546 -4.34509
693 1 -11.9917 3.94852 -6.44547
694 1 -10.0163 5.99211 -6.50427
695 1 -9.97325 3.99429 -4.27474
696 1 -11.9306 6.04235 -4.27914
697 1 -8.02685 3.96364 -6.5113
698 1 -6.02114 5.95878 -6.482
699 1 -6.02419 3.95485 -4.30811
700 1 -8.02585 5.99384 -4.33484
701 1 -4.00851 3.9735 -6.47371
702 1 -2.04756 6.00575 -6.43938
703 1 -2.01445 4.01391 -4.3018
704 1 -4.05266 6.00804 -4.34076
705 1 -15.9992 7.99434 -6.48952
706 1 -13.9801 9.99535 -6.52698
707 1 -13.9702 7.9789 -4.32882
708 1 -15.9893 10.0038 -4.32379
709 1 -12.0107 8.00356 -6.52935
710 1 -9.99327 10.0211 -6.51351
711 1 -10.0001 7.98779 -4.32848
712 1 -11.9788 9.99182 -4.33462
713 1 -7.99478 8.0382 -6.53505
714 1 -5.99336 9.99999 -6.54163
715 1 -6.04149 7.96729 -4.31247
716 1 -8.0019 9.99173 -4.29053
717 1 -4.01955 7.9916 -6.48321
718 1 -2.06008 10.0385 -6.48412
719 1 -1.98413 8.04255 -4.30615
720 1 -4.03374 9.98487 -4.31734
721 1 -16.0377 12.0129 -6.49818
722 1 -13.9942 14.0153 -6.5132
723 1 -13.9927 11.9482 -4.3561
724 1 -15.9695 14.0179 -4.31174
725 1 -11.9857 12.0174 -6.52335
726 1 -9.99456 14.0111 -6.50821
727 1 -9.99095 11.9869 -4.35752
728 1 -11.9813 14.0018 -4.36942
729 1 -7.99258 12.0296 -6.51259
730 1 -5.96107 14.0068 -6.4947
731 1 -6.02494 11.9713 -4.27482
732 1 -7.97602 13.979 -4.33846
733 1 -4.04958 11.9897 -6.48266
734 1 -1.99555 13.9843 -6.46622
735 1 -2.00486 11.9756 -4.3173
736 1 -4.00276 13.9711 -4.29383
737 1 -15.9999 4.93628e-05 -2.20384
738 1 -14.009 2.03134 -2.18726
739 1 -13.998 -0.00177462 -0.0213154
740 1 -15.9872 1.96114 -0.0136396
741 1 -11.9945 0.0122412 -2.18629
742 1 -9.97374 2.00581 -2.19009
743 1 -9.99062 -0.00808775 -0.00522777
744 1 -12.0095 1.95958 -0.0442086
745 1 -7.97219 -0.0311536 -2.15286
746 1 -5.93344 2.02069 -2.15547
747 1 -6.0309 -0.00209882 -0.000670311
748 1 -8.00109 1.98002 -0.0376781
749 1 -4.02327 -0.00628608 -2.09649
750 1 -2.03848 2.05701 -2.16818
751 1 -2.00566 -0.00147102 0.0683494
752 1 -3.99341 1.97606 0.056522
753 1 -16.0583 3.99447 -2.18287
754 1 -14.003 6.00994 -2.12332
755 1 -13.9839 3.93638 -0.0439675
756 1 -15.9612 5.95233 0.01643
757 1 -12.0431 4.03651 -2.15555
758 1 -10.0011 5.98297 -2.1588
759 1 -10.0022 3.93019 -0.0143064
760 1 -12.0168 5.93487 0.00690814
761 1 -7.97738 4.0081 -2.18033
762 1 -5.99774 5.99392 -2.17945
763 1 -6.00396 3.96132 0.0129639
764 1 -7.98975 5.96887 -0.011524
765 1 -4.00807 4.06272 -2.17796
766 1 -2.01397 5.99058 -2.20079
767 1 -2.01619 4.00235 0.0090607
768 1 -4.01419 5.9881 0.00395695
769 1 -15.9723 7.99453 -2.19394
770 1 -13.9928 10.001 -2.19696
771 1 -13.9846 7.99056 0.00438821
772 1 -15.9952 9.97193 0.00719003
773 1 -11.9959 8.06014 -2.1583
774 1 -9.97454 9.98569 -2.17247
775 1 -10.0135 7.96922 0.0133724
776 1 -11.9979 9.98753 0.00511882
777 1 -8.00801 7.98284 -2.19093
778 1 -5.9886 9.99792 -2.18873
779 1 -5.99624 7.98544 -0.0123001
780 1 -7.98285 9.97412 -0.0202859
781 1 -3.99116 7.98942 -2.19293
782 1 -1.97888 9.97549 -2.19361
783 1 -2.01037 7.97351 -0.0215399
784 1 -4.00451 9.96882 -0.0254431
785 1 -15.9634 11.9636 -2.17859
786 1 -13.9659 13.9444 -2.21259
787 1 -13.9879 11.9794 0.0331575
788 1 -16.0145 13.9692 -0.00838116
789 1 -11.9601 12.0021 -2.22644
790 1 -10.0153 13.992 -2.1686
791 1 -9.99601 11.9987 -0.0164037
792 1 -12.0039 13.9989 0.009763
793 1 -8.02497 11.9968 -2.15023
794 1 -6.02593 14.0056 -2.1914
795 1 -6.00243 12.0054 -0.0432762
796 1 -8.0091 14.0067 -0.0381395
797 1 -3.9674 12.0125 -2.18232
798 1 -1.99887 14.0085 -2.20939
799 1 -1.98166 12.0148 0.00746209
800 1 -3.99152 14.0417 -0.00619107
801 1 -15.9837 -0.00519322 2.01324
802 1 -13.9884 1.98617 2.02989
803 1 -11.9851 -0.0259425 2.0108
804 1 -9.98993 1.97444 2.01447
805 1 -7.98823 -0.0388848 2.05498
806 1 -6.01522 1.93509 2.05628
807 1 -4.03929 -0.0202948 2.09916
808 1 -2.00008 2.00808 2.05045
809 1 -15.9909 3.98804 2.04688
810 1 -14.0042 5.95166 2.04936
811 1 -11.9674 3.98389 2.0446
812 1 -9.97665 5.94518 2.01242
813 1 -7.98444 3.95727 2.03884
814 1 -6.00115 5.96512 2.01369
815 1 -4.01151 3.98344 2.02477
816 1 -1.97993 5.98359 2.0386
817 1 -15.9975 7.93849 2.04722
818 1 -14.0243 9.93645 2.03871
819 1 -12.0131 7.90951 2.02473
820 1 -10.0011 9.98018 1.98054
821 1 -7.99741 7.94399 2.01597
822 1 -6.00738 9.97723 2.03094
823 1 -3.99376 7.98551 2.04705
824 1 -2.02161 9.99985 2.0159
825 1 -16.0145 11.9652 2.01964
826 1 -14.0578 13.9959 1.99242
827 1 -12.0177 11.9768 1.98276
828 1 -9.9577 14.0033 2.02451
829 1 -7.98809 11.9815 2.01641
830 1 -5.964 13.9592 2.01177
831 1 -4.01813 11.9531 1.99536
832 1 -1.99722 13.9616 2.03415
833 1 0 -16 -24
834 1 2 -14 -24
835 1 2 -16 -22
836 1 0 -14 -22
837 1 4 -16 -24
838 1 6 -14 -24
839 1 6 -16 -22
840 1 4 -14 -22
841 1 8 -16 -24
842 1 10 -14 -24
843 1 10 -16 -22
844 1 8 -14 -22
845 1 12 -16 -24
846 1 14 -14 -24
847 1 14 -16 -22
848 1 12 -14 -22
849 1 0 -12 -24
850 1 2 -10 -24
851 1 2 -12 -22
852 1 0 -10 -22
853 1 4 -12 -24
854 1 6 -10 -24
855 1 6 -12 -22
856 1 4 -10 -22
857 1 8 -12 -24
858 1 10 -10 -24
859 1 10 -12 -22
860 1 8 -10 -22
861 1 12 -12 -24
862 1 14 -10 -24
863 1 14 -12 -22
864 1 12 -10 -22
865 1 0 -8 -24
866 1 2 -6 -24
867 1 2 -8 -22
868 1 0 -6 -22
869 1 4 -8 -24
870 1 6 -6 -24
871 1 6 -8 -22
872 1 4 -6 -22
873 1 8 -8 -24
874 1 10 -6 -24
875 1 10 -8 -22
876 1 8 -6 -22
877 1 12 -8 -24
878 1 14 -6 -24
879 1 14 -8 -22
880 1 12 -6 -22
881 1 0 -4 -24
882 1 2 -2 -24
883 1 2 -4 -22
884 1 0 -2 -22
885 1 4 -4 -24
886 1 6 -2 -24
887 1 6 -4 -22
888 1 4 -2 -22
889 1 8 -4 -24
890 1 10 -2 -24
891 1 10 -4 -22
892 1 8 -2 -22
893 1 12 -4 -24
894 1 14 -2 -24
895 1 14 -4 -22
896 1 12 -2 -22
897 1 -0.128952 -15.979 -19.7514
898 1 1.94659 -14.0608 -19.7975
899 1 1.94001 -15.9236 -17.7196
900 1 0.0270431 -14.1263 -17.6646
901 1 4.01993 -16.1307 -19.6973
902 1 5.85547 -13.8642 -19.8444
903 1 5.98307 -15.8544 -17.5568
904 1 4.02955 -13.9659 -17.657
905 1 8.09883 -16.1076 -19.6732
906 1 10.0082 -14.0439 -19.8829
907 1 10.0042 -15.9448 -17.4602
908 1 8.01294 -13.854 -17.6165
909 1 12.0849 -15.855 -19.5716
910 1 13.9627 -14.103 -19.543
911 1 14.1635 -16.0737 -17.5135
912 1 11.9741 -13.9597 -17.4826
913 1 -0.0554161 -12.2765 -19.6414
914 1 1.99206 -10.0142 -19.7743
915 1 1.93651 -12.0686 -17.3584
916 1 0.000339238 -10.0943 -17.5176
917 1 4.06168 -12.0954 -19.7595
918 1 6.08677 -9.93138 -19.6191
919 1 5.99204 -12.0178 -17.4005
920 1 4.06848 -10.1199 -17.5059
921 1 7.98827 -12.0916 -19.7968
922 1 10.1204 -10.1688 -19.8103
923 1 9.97174 -12.0359 -17.5034
924 1 8.0122 -10.0366 -17.613
925 1 12.0652 -12.2083 -19.7409
926 1 13.8345 -10.1071 -19.6911
927 1 14.1024 -12.023 -17.5253
928 1 11.9801 -9.99559 -17.4518
929 1 0.124682 -7.95782 -19.7478
930 1 1.91015 -6.10934 -19.7672
931 1 1.86578 -8.20569 -17.5289
932 1 0.10298 -5.95981 -17.5215
933 1 4.02584 -7.97696 -19.6989
934 1 6.23496 -6.03355 -19.7249
935 1 5.97792 -8.05589 -17.3999
936 1 4.13993 -5.97189 -17.4399
937 1 8.10052 -8.02291 -19.7561
938 1 9.9952 -6.09133 -19.863
939 1 10.0173 -8.05584 -17.3498
940 1 8.04584 -5.8148 -17.3643
941 1 11.8478 -8.06245 -19.6008
942 1 14.0428 -6.05548 -19.6151
943 1 13.9165 -7.94474 -17.4171
944 1 11.9999 -5.90377 -17.7585
945 1 0.186131 -4.06738 -19.6891
946 1 2.08674 -2.05068 -19.6408
947 1 2.22595 -4.0118 -17.6229
948 1 0.0978809 -2.05096 -17.4797
949 1 4.00635 -3.99373 -19.7044
950 1 6.00116 -2.09188 -19.6608
951 1 6.18571 -3.91012 -17.5637
952 1 4.0916 -1.77616 -17.2751
953 1 8.04452 -4.02704 -19.7363
954 1 9.97356 -1.78314 -19.6545
955 1 10.0349 -4.04904 -17.6356
956 1 8.00853 -1.94046 -17.3703
957 1 12.0868 -3.85586 -19.714
958 1 14.0081 -1.98973 -19.6974
959 1 14.116 -3.92746 -17.4505
960 1 12.0156 -1.84502 -17.6127
961 1 -0.161578 -16.0192 -15.1248
962 1 2.06308 -14.0324 -15.2401
963 1 2.06388 -16.0239 -12.9758
964 1 0.0611678 -13.9175 -13.0441
965 1 3.82184 -16.0475 -15.1691
966 1 5.98171 -14.0292 -15.4123
967 1 6.05685 -16.0581 -13.0485
968 1 4.01012 -14.0425 -13.1176
969 1 7.94524 -15.8788 -15.2315
970 1 9.90889 -14.1588 -15.0985
971 1 9.98345 -16.06 -13.0473
972 1 7.98653 -14.0433 -13.0734
973 1 11.8344 -15.9534 -15.3169
974 1 14.0044 -14.0005 -15.1463
975 1 13.9953 -16.0002 -13.0569
976 1 12.0055 -14.0513 -13.0543
977 1 0.0389449 -11.9774 -15.1062
978 1 2.07781 -9.95796 -15.3347
979 1 2.03139 -12.0131 -12.9768
980 1 -0.00141198 -10.0413 -13.0241
981 1 3.99155 -12.0977 -15.3292
982 1 6.04706 -9.97972 -15.4183
983 1 5.96663 -12.03 -13.0799
984 1 3.95198 -9.98035 -13.0864
985 1 8.0532 -12.0615 -15.0495
986 1 10.0505 -10.0908 -15.1736
987 1 9.98686 -12.0272 -13.0474
988 1 7.98338 -10.0534 -13.0876
989 1 12.061 -12.0665 -15.2085
990 1 14.0341 -10.0019 -15.3997
991 1 13.929 -12.0648 -13.0603
992 1 11.8972 -10.03 -13.095
993 1 0.030262 -8.06265 -15.0631
994 1 1.88377 -5.98029 -15.199
995 1 1.97031 -8.0144 -13.0011
996 1 -0.0261586 -6.00669 -13.0881
997 1 3.83092 -7.91791 -15.1528
998 1 6.0681 -5.87481 -15.0021
999 1 5.94846 -7.99129 -13.0365
1000 1 3.98178 -6.02585 -12.9635
1001 1 8.12098 -8.21417 -15.3996
1002 1 10.174 -6.11259 -15.0709
1003 1 9.97608 -8.01486 -12.9894
1004 1 7.99091 -5.99331 -12.9923
1005 1 11.8964 -8.10612 -15.2856
1006 1 14.0479 -5.99146 -15.1485
1007 1 14.0349 -7.9744 -13.0165
1008 1 12.0037 -6.00933 -12.9824
1009 1 -0.0297154 -3.99959 -15.244
1010 1 1.93303 -2.10101 -15.1121
1011 1 1.97411 -3.99039 -13.0205
1012 1 0.0460434 -2.01364 -12.9309
1013 1 4.16209 -4.10091 -15.3367
1014 1 6.08073 -2.16267 -15.1766
1015 1 6.03214 -4.00165 -12.9908
1016 1 3.98353 -1.95009 -12.9915
1017 1 8.02214 -4.1482 -15.2094
1018 1 9.88176 -2.12062 -15.4004