ITEM: TIMESTEP
0
ITEM: NUMBER OF ATOMS
11401
ITEM: BOX BOUNDS pp pp ss
0.0000000000000000e+00 5.7699913344822278e+01
0.0000000000000000e+00 7.0667672948810207e+01
-4.6638284702621678e-03 4.6642948531061982e+01
ITEM: ATOMS id type x y z
1 1 27.4075 1.90518e-16 2.49848
2 1 25.965 1.90518e-16 -2.05366e-16
3 1 28.85 8.64873e-16 2.91498e-16
4 1 28.85 0 14.9909
5 1 27.4075 0 12.4924
6 1 27.4075 1.29252e-15 7.49544
7 1 25.965 6.18165e-16 9.99392
8 1 24.5225 0 7.49544
9 1 28.85 2.35559 11.6596
10 1 27.4075 2.35559 9.16109
11 1 24.5225 0 2.49848
12 1 23.08 0 4.99696
13 1 21.6375 0 2.49848
14 1 25.965 0 4.99696
15 1 27.4075 2.35559 4.16413
16 1 25.965 2.35559 6.66261
17 1 24.5225 2.35559 4.16413
18 1 28.85 4.71118 8.32827
19 1 27.4075 4.71118 5.82979
20 1 20.195 6.18165e-16 -3.10914e-16
21 1 23.08 0 1.8595e-16
22 1 23.08 2.35559 1.66565
23 1 25.965 2.35559 1.66565
24 1 27.4075 4.71118 0.832827
25 1 25.965 4.71118 3.33131
26 1 24.5225 4.71118 0.832827
27 1 28.85 7.06677 4.99696
28 1 27.4075 7.06677 2.49848
29 1 25.965 7.06677 -3.10914e-16
30 1 28.85 9.42236 1.66565
31 1 27.4075 2.20879e-15 22.4863
32 1 27.4075 0 17.4894
33 1 25.965 4.32437e-16 19.9878
34 1 24.5225 0 17.4894
35 1 27.4075 2.35559 19.155
36 1 24.5225 9.6939e-16 12.4924
37 1 23.08 1.32061e-15 14.9909
38 1 21.6375 0 12.4924
39 1 25.965 8.12114e-17 14.9909
40 1 27.4075 2.35559 14.1581
41 1 25.965 2.35559 16.6565
42 1 24.5225 2.35559 14.1581
43 1 27.4075 4.71118 15.8237
44 1 21.6375 0 7.49544
45 1 20.195 4.32437e-16 9.99392
46 1 18.7525 4.32437e-16 7.49544
47 1 23.08 0 9.99392
48 1 24.5225 2.35559 9.16109
49 1 23.08 2.35559 11.6596
50 1 21.6375 2.35559 9.16109
51 1 25.965 2.35559 11.6596
52 1 27.4075 4.71118 10.8267
53 1 25.965 4.71118 13.3252
54 1 24.5225 4.71118 10.8267
55 1 27.4075 7.06677 12.4924
56 1 18.7525 9.6939e-16 2.49848
57 1 17.31 1.32061e-15 4.99696
58 1 15.8675 4.32437e-16 2.49848
59 1 20.195 8.12114e-17 4.99696
60 1 21.6375 2.35559 4.16413
61 1 20.195 2.35559 6.66261
62 1 18.7525 2.35559 4.16413
63 1 23.08 2.35559 6.66261
64 1 24.5225 4.71118 5.82979
65 1 23.08 4.71118 8.32827
66 1 21.6375 4.71118 5.82979
67 1 25.965 4.71118 8.32827
68 1 27.4075 7.06677 7.49544
69 1 25.965 7.06677 9.99392
70 1 24.5225 7.06677 7.49544
71 1 27.4075 9.42236 9.16109
72 1 14.425 4.32437e-16 1.45749e-16
73 1 17.31 8.12114e-17 -8.25825e-17
74 1 17.31 2.35559 1.66565
75 1 20.195 2.35559 1.66565
76 1 21.6375 4.71118 0.832827
77 1 20.195 4.71118 3.33131
78 1 18.7525 4.71118 0.832827
79 1 23.08 4.71118 3.33131
80 1 24.5225 7.06677 2.49848
81 1 23.08 7.06677 4.99696
82 1 21.6375 7.06677 2.49848
83 1 25.965 7.06677 4.99696
84 1 27.4075 9.42236 4.16413
85 1 25.965 9.42236 6.66261
86 1 24.5225 9.42236 4.16413
87 1 27.4075 11.7779 5.82979
88 1 20.195 7.06677 1.45749e-16
89 1 23.08 7.06677 -9.70761e-16
90 1 23.08 9.42236 1.66565
91 1 25.965 9.42236 1.66565
92 1 27.4075 11.7779 0.832827
93 1 25.965 11.7779 3.33131
94 1 24.5225 11.7779 0.832827
95 1 27.4075 14.1335 2.49848
96 1 25.965 14.1335 1.45749e-16
97 1 24.5225 0 22.4863
98 1 21.6375 4.84695e-16 22.4863
99 1 21.6375 0 17.4894
100 1 20.195 9.28784e-16 19.9878
101 1 18.7525 0 17.4894
102 1 23.08 6.4626e-16 19.9878
103 1 24.5225 2.35559 19.155
104 1 23.08 2.35559 21.6535
105 1 21.6375 2.35559 19.155
106 1 25.965 2.35559 21.6535
107 1 27.4075 4.71118 20.8207
108 1 24.5225 4.71118 20.8207
109 1 27.4075 7.06677 22.4863
110 1 18.7525 0 12.4924
111 1 17.31 0 14.9909
112 1 15.8675 4.06057e-17 12.4924
113 1 20.195 0 14.9909
114 1 21.6375 2.35559 14.1581
115 1 20.195 2.35559 16.6565
116 1 18.7525 2.35559 14.1581
117 1 23.08 2.35559 16.6565
118 1 24.5225 4.71118 15.8237
119 1 23.08 4.71118 18.3222
120 1 21.6375 4.71118 15.8237
121 1 25.965 4.71118 18.3222
122 1 27.4075 7.06677 17.4894
123 1 25.965 7.06677 19.9878
124 1 24.5225 7.06677 17.4894
125 1 28.85 9.42236 21.6535
126 1 27.4075 9.42236 19.155
127 1 15.8675 6.4626e-16 7.49544
128 1 14.425 9.28784e-16 9.99392
129 1 12.9825 4.06057e-17 7.49544
130 1 17.31 6.4626e-16 9.99392
131 1 18.7525 2.35559 9.16109
132 1 17.31 2.35559 11.6596
133 1 15.8675 2.35559 9.16109
134 1 20.195 2.35559 11.6596
135 1 21.6375 4.71118 10.8267
136 1 20.195 4.71118 13.3252
137 1 18.7525 4.71118 10.8267
138 1 23.08 4.71118 13.3252
139 1 24.5225 7.06677 12.4924
140 1 23.08 7.06677 14.9909
141 1 21.6375 7.06677 12.4924
142 1 25.965 7.06677 14.9909
143 1 27.4075 9.42236 14.1581
144 1 25.965 9.42236 16.6565
145 1 24.5225 9.42236 14.1581
146 1 28.85 11.7779 18.3222
147 1 27.4075 11.7779 15.8237
148 1 12.9825 0 2.49848
149 1 11.54 0 4.99696
150 1 10.0975 4.06057e-17 2.49848
151 1 14.425 0 4.99696
152 1 15.8675 2.35559 4.16413
153 1 14.425 2.35559 6.66261
154 1 12.9825 2.35559 4.16413
155 1 17.31 2.35559 6.66261
156 1 18.7525 4.71118 5.82979
157 1 17.31 4.71118 8.32827
158 1 15.8675 4.71118 5.82979
159 1 20.195 4.71118 8.32827
160 1 21.6375 7.06677 7.49544
161 1 20.195 7.06677 9.99392
162 1 18.7525 7.06677 7.49544
163 1 23.08 7.06677 9.99392
164 1 24.5225 9.42236 9.16109
165 1 23.08 9.42236 11.6596
166 1 21.6375 9.42236 9.16109
167 1 25.965 9.42236 11.6596
168 1 27.4075 11.7779 10.8267
169 1 25.965 11.7779 13.3252
170 1 24.5225 11.7779 10.8267
171 1 28.85 14.1335 14.9909
172 1 27.4075 14.1335 12.4924
173 1 8.65499 4.06057e-17 -4.12912e-17
174 1 11.54 0 9.29748e-17
175 1 11.54 2.35559 1.66565
176 1 14.425 2.35559 1.66565
177 1 15.8675 4.71118 0.832827
178 1 14.425 4.71118 3.33131
179 1 12.9825 4.71118 0.832827
180 1 17.31 4.71118 3.33131
181 1 18.7525 7.06677 2.49848
182 1 17.31 7.06677 4.99696
183 1 15.8675 7.06677 2.49848
184 1 20.195 7.06677 4.99696
185 1 21.6375 9.42236 4.16413
186 1 20.195 9.42236 6.66261
187 1 18.7525 9.42236 4.16413
188 1 23.08 9.42236 6.66261
189 1 24.5225 11.7779 5.82979
190 1 23.08 11.7779 8.32827
191 1 21.6375 11.7779 5.82979
192 1 25.965 11.7779 8.32827
193 1 27.4075 14.1335 7.49544
194 1 25.965 14.1335 9.99392
195 1 24.5225 14.1335 7.49544
196 1 28.85 16.4891 11.6596
197 1 27.4075 16.4891 9.16109
198 1 14.425 7.06677 4.02798e-16
199 1 17.31 7.06677 9.29748e-17
200 1 17.31 9.42236 1.66565
201 1 20.195 9.42236 1.66565
202 1 21.6375 11.7779 0.832827
203 1 20.195 11.7779 3.33131
204 1 18.7525 11.7779 0.832827
205 1 23.08 11.7779 3.33131
206 1 24.5225 14.1335 2.49848
207 1 23.08 14.1335 4.99696
208 1 21.6375 14.1335 2.49848
209 1 25.965 14.1335 4.99696
210 1 27.4075 16.4891 4.16413
211 1 25.965 16.4891 6.66261
212 1 24.5225 16.4891 4.16413
213 1 28.85 18.8447 8.32827
214 1 27.4075 18.8447 5.82979
215 1 20.195 14.1335 -4.12912e-17
216 1 23.08 14.1335 -3.51114e-16
217 1 23.08 16.4891 1.66565
218 1 25.965 16.4891 1.66565
219 1 27.4075 18.8447 0.832827
220 1 25.965 18.8447 3.33131
221 1 24.5225 18.8447 0.832827
222 1 28.85 21.2003 4.99696
223 1 27.4075 21.2003 2.49848
224 1 25.965 21.2003 4.02798e-16
225 1 28.85 23.5559 1.66565
226 1 18.7525 7.67219e-16 22.4863
227 1 15.8675 0 22.4863
228 1 15.8675 0 17.4894
229 1 14.425 0 19.9878
230 1 12.9825 0 17.4894
231 1 17.31 0 19.9878
232 1 18.7525 2.35559 19.155
233 1 17.31 2.35559 21.6535
234 1 15.8675 2.35559 19.155
235 1 20.195 2.35559 21.6535
236 1 21.6375 4.71118 20.8207
237 1 18.7525 4.71118 20.8207
238 1 24.5225 7.06677 22.4863
239 1 21.6375 7.06677 22.4863
240 1 12.9825 7.67219e-16 12.4924
241 1 11.54 3.8361e-16 14.9909
242 1 10.0975 1.61565e-16 12.4924
243 1 14.425 0 14.9909
244 1 15.8675 2.35559 14.1581
245 1 14.425 2.35559 16.6565
246 1 12.9825 2.35559 14.1581
247 1 17.31 2.35559 16.6565
248 1 18.7525 4.71118 15.8237
249 1 17.31 4.71118 18.3222
250 1 15.8675 4.71118 15.8237
251 1 20.195 4.71118 18.3222
252 1 21.6375 7.06677 17.4894
253 1 20.195 7.06677 19.9878
254 1 18.7525 7.06677 17.4894
255 1 23.08 7.06677 19.9878
256 1 24.5225 9.42236 19.155
257 1 23.08 9.42236 21.6535
258 1 21.6375 9.42236 19.155
259 1 25.965 9.42236 21.6535
260 1 27.4075 11.7779 20.8207
261 1 24.5225 11.7779 20.8207
262 1 27.4075 14.1335 22.4863
263 1 10.0975 0 7.49544
264 1 8.65499 0 9.99392
265 1 7.21249 0 7.49544
266 1 11.54 3.2313e-16 9.99392
267 1 12.9825 2.35559 9.16109
268 1 11.54 2.35559 11.6596
269 1 10.0975 2.35559 9.16109
270 1 14.425 2.35559 11.6596
271 1 15.8675 4.71118 10.8267
272 1 14.425 4.71118 13.3252
273 1 12.9825 4.71118 10.8267
274 1 17.31 4.71118 13.3252
275 1 18.7525 7.06677 12.4924
276 1 17.31 7.06677 14.9909
277 1 15.8675 7.06677 12.4924
278 1 20.195 7.06677 14.9909
279 1 21.6375 9.42236 14.1581
280 1 20.195 9.42236 16.6565
281 1 18.7525 9.42236 14.1581
282 1 23.08 9.42236 16.6565
283 1 24.5225 11.7779 15.8237
284 1 23.08 11.7779 18.3222
285 1 21.6375 11.7779 15.8237
286 1 25.965 11.7779 18.3222
287 1 27.4075 14.1335 17.4894
288 1 25.965 14.1335 19.9878
289 1 24.5225 14.1335 17.4894
290 1 28.85 14.1335 19.9878
291 1 28.85 16.4891 21.6535
292 1 27.4075 16.4891 19.155
293 1 7.21249 0 2.49848
294 1 5.76999 1.61565e-16 4.99696
295 1 4.32749 1.61565e-16 2.49848
296 1 8.65499 3.2313e-16 4.99696
297 1 10.0975 2.35559 4.16413
298 1 8.65499 2.35559 6.66261
299 1 7.21249 2.35559 4.16413
300 1 11.54 2.35559 6.66261
301 1 12.9825 4.71118 5.82979
302 1 11.54 4.71118 8.32827
303 1 10.0975 4.71118 5.82979
304 1 14.425 4.71118 8.32827
305 1 15.8675 7.06677 7.49544
306 1 14.425 7.06677 9.99392
307 1 12.9825 7.06677 7.49544
308 1 17.31 7.06677 9.99392
309 1 18.7525 9.42236 9.16109
310 1 17.31 9.42236 11.6596
311 1 15.8675 9.42236 9.16109
312 1 20.195 9.42236 11.6596
313 1 21.6375 11.7779 10.8267
314 1 20.195 11.7779 13.3252
315 1 18.7525 11.7779 10.8267
316 1 23.08 11.7779 13.3252
317 1 24.5225 14.1335 12.4924
318 1 23.08 14.1335 14.9909
319 1 21.6375 14.1335 12.4924
320 1 25.965 14.1335 14.9909
321 1 27.4075 16.4891 14.1581
322 1 25.965 16.4891 16.6565
323 1 24.5225 16.4891 14.1581
324 1 28.85 16.4891 16.6565
325 1 28.85 18.8447 18.3222
326 1 27.4075 18.8447 15.8237
327 1 2.885 0 2.32437e-17
328 1 5.76999 0 4.64874e-17
329 1 5.76999 2.35559 1.66565
330 1 8.65499 2.35559 1.66565
331 1 10.0975 4.71118 0.832827
332 1 8.65499 4.71118 3.33131
333 1 7.21249 4.71118 0.832827
334 1 11.54 4.71118 3.33131
335 1 12.9825 7.06677 2.49848
336 1 11.54 7.06677 4.99696
337 1 10.0975 7.06677 2.49848
338 1 14.425 7.06677 4.99696
339 1 15.8675 9.42236 4.16413
340 1 14.425 9.42236 6.66261
341 1 12.9825 9.42236 4.16413
342 1 17.31 9.42236 6.66261
343 1 18.7525 11.7779 5.82979
344 1 17.31 11.7779 8.32827
345 1 15.8675 11.7779 5.82979
346 1 20.195 11.7779 8.32827
347 1 21.6375 14.1335 7.49544
348 1 20.195 14.1335 9.99392
349 1 18.7525 14.1335 7.49544
350 1 23.08 14.1335 9.99392
351 1 24.5225 16.4891 9.16109
352 1 23.08 16.4891 11.6596
353 1 21.6375 16.4891 9.16109
354 1 25.965 16.4891 11.6596
355 1 27.4075 18.8447 10.8267
356 1 25.965 18.8447 13.3252
357 1 24.5225 18.8447 10.8267
358 1 28.85 18.8447 13.3252
359 1 28.85 21.2003 14.9909
360 1 27.4075 21.2003 12.4924
361 1 8.65499 7.06677 -4.20846e-16
362 1 11.54 7.06677 -1.75557e-16
363 1 11.54 9.42236 1.66565
364 1 14.425 9.42236 1.66565
365 1 15.8675 11.7779 0.832827
366 1 14.425 11.7779 3.33131
367 1 12.9825 11.7779 0.832827
368 1 17.31 11.7779 3.33131
369 1 18.7525 14.1335 2.49848
370 1 17.31 14.1335 4.99696
371 1 15.8675 14.1335 2.49848
372 1 20.195 14.1335 4.99696
373 1 21.6375 16.4891 4.16413
374 1 20.195 16.4891 6.66261
375 1 18.7525 16.4891 4.16413
376 1 23.08 16.4891 6.66261
377 1 24.5225 18.8447 5.82979
378 1 23.08 18.8447 8.32827
379 1 21.6375 18.8447 5.82979
380 1 25.965 18.8447 8.32827
381 1 27.4075 21.2003 7.49544
382 1 25.965 21.2003 9.99392
383 1 24.5225 21.2003 7.49544
384 1 28.85 21.2003 9.99392
385 1 28.85 23.5559 11.6596
386 1 27.4075 23.5559 9.16109
387 1 14.425 14.1335 -5.31868e-16
388 1 17.31 14.1335 -8.41691e-16
389 1 17.31 16.4891 1.66565
390 1 20.195 16.4891 1.66565
391 1 21.6375 18.8447 0.832827
392 1 20.195 18.8447 3.33131
393 1 18.7525 18.8447 0.832827
394 1 23.08 18.8447 3.33131
395 1 24.5225 21.2003 2.49848
396 1 23.08 21.2003 4.99696
397 1 21.6375 21.2003 2.49848
398 1 25.965 21.2003 4.99696
399 1 27.4075 23.5559 4.16413
400 1 25.965 23.5559 6.66261
401 1 24.5225 23.5559 4.16413
402 1 28.85 23.5559 6.66261
403 1 28.85 25.9115 8.32827
404 1 27.4075 25.9115 5.82979
405 1 20.195 21.2003 -1.98801e-16
406 1 23.08 21.2003 9.34666e-16
407 1 23.08 23.5559 1.66565
408 1 25.965 23.5559 1.66565
409 1 27.4075 25.9115 0.832827
410 1 25.965 25.9115 3.33131
411 1 24.5225 25.9115 0.832827
412 1 28.85 25.9115 3.33131
413 1 28.85 28.2671 4.99696
414 1 27.4075 28.2671 2.49848
415 1 25.965 28.2671 -7.53912e-16
416 1 28.85 28.2671 -1.06374e-15
417 1 28.85 30.6227 1.66565
418 1 12.9825 0 22.4863
419 1 10.0975 2.82524e-16 22.4863
420 1 10.0975 0 17.4894
421 1 8.65499 9.48658e-16 19.9878
422 1 7.21249 0 17.4894
423 1 11.54 4.83837e-16 19.9878
424 1 12.9825 2.35559 19.155
425 1 11.54 2.35559 21.6535
426 1 10.0975 2.35559 19.155
427 1 14.425 2.35559 21.6535
428 1 15.8675 4.71118 20.8207
429 1 12.9825 4.71118 20.8207
430 1 18.7525 7.06677 22.4863
431 1 15.8675 7.06677 22.4863
432 1 7.21249 0 12.4924
433 1 5.76999 0 14.9909
434 1 4.32749 6.04796e-17 12.4924
435 1 8.65499 0 14.9909
436 1 10.0975 2.35559 14.1581
437 1 8.65499 2.35559 16.6565
438 1 7.21249 2.35559 14.1581
439 1 11.54 2.35559 16.6565
440 1 12.9825 4.71118 15.8237
441 1 11.54 4.71118 18.3222
442 1 10.0975 4.71118 15.8237
443 1 14.425 4.71118 18.3222
444 1 15.8675 7.06677 17.4894
445 1 14.425 7.06677 19.9878
446 1 12.9825 7.06677 17.4894
447 1 17.31 7.06677 19.9878
448 1 18.7525 9.42236 19.155
449 1 17.31 9.42236 21.6535
450 1 15.8675 9.42236 19.155
451 1 20.195 9.42236 21.6535
452 1 21.6375 11.7779 20.8207
453 1 18.7525 11.7779 20.8207
454 1 24.5225 14.1335 22.4863
455 1 21.6375 14.1335 22.4863
456 1 4.32749 0 7.49544
457 1 2.885 2.82524e-16 9.99392
458 1 1.4425 6.04796e-17 7.49544
459 1 5.76999 2.41919e-16 9.99392
460 1 7.21249 2.35559 9.16109
461 1 5.76999 2.35559 11.6596
462 1 4.32749 2.35559 9.16109
463 1 8.65499 2.35559 11.6596
464 1 10.0975 4.71118 10.8267
465 1 8.65499 4.71118 13.3252
466 1 7.21249 4.71118 10.8267
467 1 11.54 4.71118 13.3252
468 1 12.9825 7.06677 12.4924
469 1 11.54 7.06677 14.9909
470 1 10.0975 7.06677 12.4924
471 1 14.425 7.06677 14.9909
472 1 15.8675 9.42236 14.1581
473 1 14.425 9.42236 16.6565
474 1 12.9825 9.42236 14.1581
475 1 17.31 9.42236 16.6565
476 1 18.7525 11.7779 15.8237
477 1 17.31 11.7779 18.3222
478 1 15.8675 11.7779 15.8237
479 1 20.195 11.7779 18.3222
480 1 21.6375 14.1335 17.4894
481 1 20.195 14.1335 19.9878
482 1 18.7525 14.1335 17.4894
483 1 23.08 14.1335 19.9878
484 1 24.5225 16.4891 19.155
485 1 23.08 16.4891 21.6535
486 1 21.6375 16.4891 19.155
487 1 25.965 16.4891 21.6535
488 1 27.4075 18.8447 20.8207
489 1 24.5225 18.8447 20.8207
490 1 27.4075 21.2003 22.4863
491 1 1.4425 6.04796e-17 2.49848
492 1 9.92235e-17 6.04796e-17 4.99696
493 1 2.885 1.20959e-16 4.99696
494 1 4.32749 2.35559 4.16413
495 1 2.885 2.35559 6.66261
496 1 1.4425 2.35559 4.16413
497 1 5.76999 2.35559 6.66261
498 1 7.21249 4.71118 5.82979
499 1 5.76999 4.71118 8.32827
500 1 4.32749 4.71118 5.82979
501 1 8.65499 4.71118 8.32827
502 1 10.0975 7.06677 7.49544
503 1 8.65499 7.06677 9.99392
504 1 7.21249 7.06677 7.49544
505 1 11.54 7.06677 9.99392
506 1 12.9825 9.42236 9.16109
507 1 11.54 9.42236 11.6596
508 1 10.0975 9.42236 9.16109
509 1 14.425 9.42236 11.6596
510 1 15.8675 11.7779 10.8267
511 1 14.425 11.7779 13.3252
512 1 12.9825 11.7779 10.8267
513 1 17.31 11.7779 13.3252
514 1 18.7525 14.1335 12.4924
515 1 17.31 14.1335 14.9909
516 1 15.8675 14.1335 12.4924
517 1 20.195 14.1335 14.9909
518 1 21.6375 16.4891 14.1581
519 1 20.195 16.4891 16.6565
520 1 18.7525 16.4891 14.1581
521 1 23.08 16.4891 16.6565
522 1 24.5225 18.8447 15.8237
523 1 23.08 18.8447 18.3222
524 1 21.6375 18.8447 15.8237
525 1 25.965 18.8447 18.3222
526 1 27.4075 21.2003 17.4894
527 1 25.965 21.2003 19.9878
528 1 24.5225 21.2003 17.4894
529 1 28.85 21.2003 19.9878
530 1 27.4075 23.5559 19.155
531 1 0 0 0
532 1 9.92235e-17 2.35559 1.66565
533 1 2.885 2.35559 1.66565
534 1 4.32749 4.71118 0.832827
535 1 2.885 4.71118 3.33131
536 1 1.4425 4.71118 0.832827
537 1 5.76999 4.71118 3.33131
538 1 7.21249 7.06677 2.49848
539 1 5.76999 7.06677 4.99696
540 1 4.32749 7.06677 2.49848
541 1 8.65499 7.06677 4.99696
542 1 10.0975 9.42236 4.16413
543 1 8.65499 9.42236 6.66261
544 1 7.21249 9.42236 4.16413
545 1 11.54 9.42236 6.66261
546 1 12.9825 11.7779 5.82979
547 1 11.54 11.7779 8.32827
548 1 10.0975 11.7779 5.82979
549 1 14.425 11.7779 8.32827
550 1 15.8675 14.1335 7.49544
551 1 14.425 14.1335 9.99392
552 1 12.9825 14.1335 7.49544
553 1 17.31 14.1335 9.99392
554 1 18.7525 16.4891 9.16109
555 1 17.31 16.4891 11.6596
556 1 15.8675 16.4891 9.16109
557 1 20.195 16.4891 11.6596
558 1 21.6375 18.8447 10.8267
559 1 20.195 18.8447 13.3252
560 1 18.7525 18.8447 10.8267
561 1 23.08 18.8447 13.3252
562 1 24.5225 21.2003 12.4924
563 1 23.08 21.2003 14.9909
564 1 21.6375 21.2003 12.4924
565 1 25.965 21.2003 14.9909
566 1 27.4075 23.5559 14.1581
567 1 25.965 23.5559 16.6565
568 1 24.5225 23.5559 14.1581
569 1 28.85 23.5559 16.6565
570 1 27.4075 25.9115 15.8237
571 1 2.885 7.06677 -1.34266e-16
572 1 5.76999 7.06677 -9.29748e-17
573 1 5.76999 9.42236 1.66565
574 1 8.65499 9.42236 1.66565
575 1 10.0975 11.7779 0.832827
576 1 8.65499 11.7779 3.33131
577 1 7.21249 11.7779 0.832827
578 1 11.54 11.7779 3.33131
579 1 12.9825 14.1335 2.49848
580 1 11.54 14.1335 4.99696
581 1 10.0975 14.1335 2.49848
582 1 14.425 14.1335 4.99696
583 1 15.8675 16.4891 4.16413
584 1 14.425 16.4891 6.66261
585 1 12.9825 16.4891 4.16413
586 1 17.31 16.4891 6.66261
587 1 18.7525 18.8447 5.82979
588 1 17.31 18.8447 8.32827
589 1 15.8675 18.8447 5.82979
590 1 20.195 18.8447 8.32827
591 1 21.6375 21.2003 7.49544
592 1 20.195 21.2003 9.99392
593 1 18.7525 21.2003 7.49544
594 1 23.08 21.2003 9.99392
595 1 24.5225 23.5559 9.16109
596 1 23.08 23.5559 11.6596
597 1 21.6375 23.5559 9.16109
598 1 25.965 23.5559 11.6596
599 1 27.4075 25.9115 10.8267
600 1 25.965 25.9115 13.3252
601 1 24.5225 25.9115 10.8267
602 1 28.85 25.9115 13.3252
603 1 27.4075 28.2671 12.4924
604 1 8.65499 14.1335 1.98801e-16
605 1 11.54 14.1335 -1.8595e-16
606 1 11.54 16.4891 1.66565
607 1 14.425 16.4891 1.66565
608 1 15.8675 18.8447 0.832827
609 1 14.425 18.8447 3.33131
610 1 12.9825 18.8447 0.832827
611 1 17.31 18.8447 3.33131
612 1 18.7525 21.2003 2.49848
613 1 17.31 21.2003 4.99696
614 1 15.8675 21.2003 2.49848
615 1 20.195 21.2003 4.99696
616 1 21.6375 23.5559 4.16413
617 1 20.195 23.5559 6.66261
618 1 18.7525 23.5559 4.16413
619 1 23.08 23.5559 6.66261
620 1 24.5225 25.9115 5.82979
621 1 23.08 25.9115 8.32827
622 1 21.6375 25.9115 5.82979
623 1 25.965 25.9115 8.32827
624 1 27.4075 28.2671 7.49544
625 1 25.965 28.2671 9.99392
626 1 24.5225 28.2671 7.49544
627 1 28.85 28.2671 9.99392
628 1 27.4075 30.6227 9.16109
629 1 14.425 21.2003 5.31868e-16
630 1 17.31 21.2003 1.65165e-16
631 1 17.31 23.5559 1.66565
632 1 20.195 23.5559 1.66565
633 1 21.6375 25.9115 0.832827
634 1 20.195 25.9115 3.33131
635 1 18.7525 25.9115 0.832827
636 1 23.08 25.9115 3.33131
637 1 24.5225 28.2671 2.49848
638 1 23.08 28.2671 4.99696
639 1 21.6375 28.2671 2.49848
640 1 25.965 28.2671 4.99696
641 1 27.4075 30.6227 4.16413
642 1 25.965 30.6227 6.66261
643 1 24.5225 30.6227 4.16413
644 1 28.85 30.6227 6.66261
645 1 27.4075 32.9782 5.82979
646 1 20.195 28.2671 -2.32437e-17
647 1 23.08 28.2671 -3.71899e-16
648 1 23.08 30.6227 1.66565
649 1 25.965 30.6227 1.66565
650 1 27.4075 32.9782 0.832827
651 1 25.965 32.9782 3.33131
652 1 24.5225 32.9782 0.832827
653 1 28.85 32.9782 3.33131
654 1 7.21249 1.00914e-15 22.4863
655 1 4.32749 4.03483e-16 22.4863
656 1 4.32749 0 17.4894
657 1 2.885 0 19.9878
658 1 1.4425 0 17.4894
659 1 5.76999 5.65048e-16 19.9878
660 1 7.21249 2.35559 19.155
661 1 5.76999 2.35559 21.6535
662 1 4.32749 2.35559 19.155
663 1 8.65499 2.35559 21.6535
664 1 10.0975 4.71118 20.8207
665 1 7.21249 4.71118 20.8207
666 1 12.9825 7.06677 22.4863
667 1 10.0975 7.06677 22.4863
668 1 1.4425 1.20959e-16 12.4924
669 1 2.9767e-16 0 14.9909
670 1 2.885 1.20959e-16 14.9909
671 1 4.32749 2.35559 14.1581
672 1 2.885 2.35559 16.6565
673 1 1.4425 2.35559 14.1581
674 1 5.76999 2.35559 16.6565
675 1 7.21249 4.71118 15.8237
676 1 5.76999 4.71118 18.3222
677 1 4.32749 4.71118 15.8237
678 1 8.65499 4.71118 18.3222
679 1 10.0975 7.06677 17.4894
680 1 8.65499 7.06677 19.9878
681 1 7.21249 7.06677 17.4894
682 1 11.54 7.06677 19.9878
683 1 12.9825 9.42236 19.155
684 1 11.54 9.42236 21.6535
685 1 10.0975 9.42236 19.155
686 1 14.425 9.42236 21.6535
687 1 15.8675 11.7779 20.8207
688 1 12.9825 11.7779 20.8207
689 1 18.7525 14.1335 22.4863
690 1 15.8675 14.1335 22.4863
691 1 1.98447e-16 1.20959e-16 9.99392
692 1 1.4425 2.35559 9.16109
693 1 2.9767e-16 2.35559 11.6596
694 1 2.885 2.35559 11.6596
695 1 4.32749 4.71118 10.8267
696 1 2.885 4.71118 13.3252
697 1 1.4425 4.71118 10.8267
698 1 5.76999 4.71118 13.3252
699 1 7.21249 7.06677 12.4924
700 1 5.76999 7.06677 14.9909
701 1 4.32749 7.06677 12.4924
702 1 8.65499 7.06677 14.9909
703 1 10.0975 9.42236 14.1581
704 1 8.65499 9.42236 16.6565
705 1 7.21249 9.42236 14.1581
706 1 11.54 9.42236 16.6565
707 1 12.9825 11.7779 15.8237
708 1 11.54 11.7779 18.3222
709 1 10.0975 11.7779 15.8237
710 1 14.425 11.7779 18.3222
711 1 15.8675 14.1335 17.4894
712 1 14.425 14.1335 19.9878
713 1 12.9825 14.1335 17.4894
714 1 17.31 14.1335 19.9878
715 1 18.7525 16.4891 19.155
716 1 17.31 16.4891 21.6535
717 1 15.8675 16.4891 19.155
718 1 20.195 16.4891 21.6535
719 1 21.6375 18.8447 20.8207
720 1 18.7525 18.8447 20.8207
721 1 24.5225 21.2003 22.4863
722 1 21.6375 21.2003 22.4863
723 1 1.98447e-16 2.35559 6.66261
724 1 1.4425 4.71118 5.82979
725 1 2.9767e-16 4.71118 8.32827
726 1 2.885 4.71118 8.32827
727 1 4.32749 7.06677 7.49544
728 1 2.885 7.06677 9.99392
729 1 1.4425 7.06677 7.49544
730 1 5.76999 7.06677 9.99392
731 1 7.21249 9.42236 9.16109
732 1 5.76999 9.42236 11.6596
733 1 4.32749 9.42236 9.16109
734 1 8.65499 9.42236 11.6596
735 1 10.0975 11.7779 10.8267
736 1 8.65499 11.7779 13.3252
737 1 7.21249 11.7779 10.8267
738 1 11.54 11.7779 13.3252
739 1 12.9825 14.1335 12.4924
740 1 11.54 14.1335 14.9909
741 1 10.0975 14.1335 12.4924
742 1 14.425 14.1335 14.9909
743 1 15.8675 16.4891 14.1581
744 1 14.425 16.4891 16.6565
745 1 12.9825 16.4891 14.1581
746 1 17.31 16.4891 16.6565
747 1 18.7525 18.8447 15.8237
748 1 17.31 18.8447 18.3222
749 1 15.8675 18.8447 15.8237
750 1 20.195 18.8447 18.3222
751 1 21.6375 21.2003 17.4894
752 1 20.195 21.2003 19.9878
753 1 18.7525 21.2003 17.4894
754 1 23.08 21.2003 19.9878
755 1 24.5225 23.5559 19.155
756 1 23.08 23.5559 21.6535
757 1 21.6375 23.5559 19.155
758 1 25.965 23.5559 21.6535
759 1 27.4075 25.9115 20.8207
760 1 24.5225 25.9115 20.8207
761 1 27.4075 28.2671 22.4863
762 1 1.98447e-16 4.71118 3.33131
763 1 1.4425 7.06677 2.49848
764 1 2.9767e-16 7.06677 4.99696
765 1 2.885 7.06677 4.99696
766 1 4.32749 9.42236 4.16413
767 1 2.885 9.42236 6.66261
768 1 1.4425 9.42236 4.16413
769 1 5.76999 9.42236 6.66261
770 1 7.21249 11.7779 5.82979
771 1 5.76999 11.7779 8.32827
772 1 4.32749 11.7779 5.82979
773 1 8.65499 11.7779 8.32827
774 1 10.0975 14.1335 7.49544
775 1 8.65499 14.1335 9.99392
776 1 7.21249 14.1335 7.49544
777 1 11.54 14.1335 9.99392
778 1 12.9825 16.4891 9.16109
779 1 11.54 16.4891 11.6596
780 1 10.0975 16.4891 9.16109
781 1 14.425 16.4891 11.6596
782 1 15.8675 18.8447 10.8267
783 1 14.425 18.8447 13.3252
784 1 12.9825 18.8447 10.8267
785 1 17.31 18.8447 13.3252
786 1 18.7525 21.2003 12.4924
787 1 17.31 21.2003 14.9909
788 1 15.8675 21.2003 12.4924
789 1 20.195 21.2003 14.9909
790 1 21.6375 23.5559 14.1581
791 1 20.195 23.5559 16.6565
792 1 18.7525 23.5559 14.1581
793 1 23.08 23.5559 16.6565
794 1 24.5225 25.9115 15.8237
795 1 23.08 25.9115 18.3222
796 1 21.6375 25.9115 15.8237
797 1 25.965 25.9115 18.3222
798 1 27.4075 28.2671 17.4894
799 1 25.965 28.2671 19.9878
800 1 24.5225 28.2671 17.4894
801 1 27.4075 30.6227 19.155
802 1 1.98447e-16 7.06677 -4.64874e-17
803 1 2.9767e-16 9.42236 1.66565
804 1 2.885 9.42236 1.66565
805 1 4.32749 11.7779 0.832827
806 1 2.885 11.7779 3.33131
807 1 1.4425 11.7779 0.832827
808 1 5.76999 11.7779 3.33131
809 1 7.21249 14.1335 2.49848
810 1 5.76999 14.1335 4.99696
811 1 4.32749 14.1335 2.49848
812 1 8.65499 14.1335 4.99696
813 1 10.0975 16.4891 4.16413
814 1 8.65499 16.4891 6.66261
815 1 7.21249 16.4891 4.16413
816 1 11.54 16.4891 6.66261
817 1 12.9825 18.8447 5.82979
818 1 11.54 18.8447 8.32827
819 1 10.0975 18.8447 5.82979
820 1 14.425 18.8447 8.32827
821 1 15.8675 21.2003 7.49544
822 1 14.425 21.2003 9.99392
823 1 12.9825 21.2003 7.49544
824 1 17.31 21.2003 9.99392
825 1 18.7525 23.5559 9.16109
826 1 17.31 23.5559 11.6596
827 1 15.8675 23.5559 9.16109
828 1 20.195 23.5559 11.6596
829 1 21.6375 25.9115 10.8267
830 1 20.195 25.9115 13.3252
831 1 18.7525 25.9115 10.8267
832 1 23.08 25.9115 13.3252
833 1 24.5225 28.2671 12.4924
834 1 23.08 28.2671 14.9909
835 1 21.6375 28.2671 12.4924
836 1 25.965 28.2671 14.9909
837 1 27.4075 30.6227 14.1581
838 1 25.965 30.6227 16.6565
839 1 24.5225 30.6227 14.1581
840 1 27.4075 32.9782 15.8237
841 1 2.885 14.1335 -4.02798e-16
842 1 5.76999 14.1335 -2.68532e-16
843 1 5.76999 16.4891 1.66565
844 1 8.65499 16.4891 1.66565
845 1 10.0975 18.8447 0.832827
846 1 8.65499 18.8447 3.33131
847 1 7.21249 18.8447 0.832827
848 1 11.54 18.8447 3.33131
849 1 12.9825 21.2003 2.49848
850 1 11.54 21.2003 4.99696
851 1 10.0975 21.2003 2.49848
852 1 14.425 21.2003 4.99696
853 1 15.8675 23.5559 4.16413
854 1 14.425 23.5559 6.66261
855 1 12.9825 23.5559 4.16413
856 1 17.31 23.5559 6.66261
857 1 18.7525 25.9115 5.82979
858 1 17.31 25.9115 8.32827
859 1 15.8675 25.9115 5.82979
860 1 20.195 25.9115 8.32827
861 1 21.6375 28.2671 7.49544
862 1 20.195 28.2671 9.99392
863 1 18.7525 28.2671 7.49544
864 1 23.08 28.2671 9.99392
865 1 24.5225 30.6227 9.16109
866 1 23.08 30.6227 11.6596
867 1 21.6375 30.6227 9.16109
868 1 25.965 30.6227 11.6596
869 1 27.4075 32.9782 10.8267
870 1 25.965 32.9782 13.3252
871 1 24.5225 32.9782 10.8267
872 1 8.65499 21.2003 -4.02798e-16
873 1 11.54 21.2003 -4.90577e-16
874 1 11.54 23.5559 1.66565
875 1 14.425 23.5559 1.66565
876 1 15.8675 25.9115 0.832827
877 1 14.425 25.9115 3.33131
878 1 12.9825 25.9115 0.832827
879 1 17.31 25.9115 3.33131
880 1 18.7525 28.2671 2.49848
881 1 17.31 28.2671 4.99696
882 1 15.8675 28.2671 2.49848
883 1 20.195 28.2671 4.99696
884 1 21.6375 30.6227 4.16413
885 1 20.195 30.6227 6.66261
886 1 18.7525 30.6227 4.16413
887 1 23.08 30.6227 6.66261
888 1 24.5225 32.9782 5.82979
889 1 23.08 32.9782 8.32827
890 1 21.6375 32.9782 5.82979
891 1 25.965 32.9782 8.32827
892 1 14.425 28.2671 -8.46887e-16
893 1 17.31 28.2671 3.97602e-16
894 1 17.31 30.6227 1.66565
895 1 20.195 30.6227 1.66565
896 1 21.6375 32.9782 0.832827
897 1 20.195 32.9782 3.33131
898 1 18.7525 32.9782 0.832827
899 1 23.08 32.9782 3.33131
900 1 24.5225 35.3338 2.49848
901 1 25.965 35.3338 4.99696
902 1 23.08 35.3338 1.75557e-16
903 1 1.4425 2.41919e-16 22.4863
904 1 3.96894e-16 2.41919e-16 19.9878
905 1 1.4425 2.35559 19.155
906 1 2.35976e-16 2.35559 21.6535
907 1 2.885 2.35559 21.6535
908 1 4.32749 4.71118 20.8207
909 1 1.4425 4.71118 20.8207
910 1 7.21249 7.06677 22.4863
911 1 4.32749 7.06677 22.4863
912 1 3.96894e-16 2.35559 16.6565
913 1 1.4425 4.71118 15.8237
914 1 2.35976e-16 4.71118 18.3222
915 1 2.885 4.71118 18.3222
916 1 4.32749 7.06677 17.4894
917 1 2.885 7.06677 19.9878
918 1 1.4425 7.06677 17.4894
919 1 5.76999 7.06677 19.9878
920 1 7.21249 9.42236 19.155
921 1 5.76999 9.42236 21.6535
922 1 4.32749 9.42236 19.155
923 1 8.65499 9.42236 21.6535
924 1 10.0975 11.7779 20.8207
925 1 7.21249 11.7779 20.8207
926 1 12.9825 14.1335 22.4863
927 1 10.0975 14.1335 22.4863
928 1 3.96894e-16 4.71118 13.3252
929 1 1.4425 7.06677 12.4924
930 1 2.35976e-16 7.06677 14.9909
931 1 2.885 7.06677 14.9909
932 1 4.32749 9.42236 14.1581
933 1 2.885 9.42236 16.6565
934 1 1.4425 9.42236 14.1581
935 1 5.76999 9.42236 16.6565
936 1 7.21249 11.7779 15.8237
937 1 5.76999 11.7779 18.3222
938 1 4.32749 11.7779 15.8237
939 1 8.65499 11.7779 18.3222
940 1 10.0975 14.1335 17.4894
941 1 8.65499 14.1335 19.9878
942 1 7.21249 14.1335 17.4894
943 1 11.54 14.1335 19.9878
944 1 12.9825 16.4891 19.155
945 1 11.54 16.4891 21.6535
946 1 10.0975 16.4891 19.155
947 1 14.425 16.4891 21.6535
948 1 15.8675 18.8447 20.8207
949 1 12.9825 18.8447 20.8207
950 1 18.7525 21.2003 22.4863
951 1 15.8675 21.2003 22.4863
952 1 3.96894e-16 7.06677 9.99392
953 1 1.4425 9.42236 9.16109
954 1 2.35976e-16 9.42236 11.6596
955 1 2.885 9.42236 11.6596
956 1 4.32749 11.7779 10.8267
957 1 2.885 11.7779 13.3252
958 1 1.4425 11.7779 10.8267
959 1 5.76999 11.7779 13.3252
960 1 7.21249 14.1335 12.4924
961 1 5.76999 14.1335 14.9909
962 1 4.32749 14.1335 12.4924
963 1 8.65499 14.1335 14.9909
964 1 10.0975 16.4891 14.1581
965 1 8.65499 16.4891 16.6565
966 1 7.21249 16.4891 14.1581
967 1 11.54 16.4891 16.6565
968 1 12.9825 18.8447 15.8237
969 1 11.54 18.8447 18.3222
970 1 10.0975 18.8447 15.8237
971 1 14.425 18.8447 18.3222
972 1 15.8675 21.2003 17.4894
973 1 14.425 21.2003 19.9878
974 1 12.9825 21.2003 17.4894
975 1 17.31 21.2003 19.9878
976 1 18.7525 23.5559 19.155
977 1 17.31 23.5559 21.6535
978 1 15.8675 23.5559 19.155
979 1 20.195 23.5559 21.6535
980 1 21.6375 25.9115 20.8207
981 1 18.7525 25.9115 20.8207
982 1 24.5225 28.2671 22.4863
983 1 21.6375 28.2671 22.4863
984 1 3.96894e-16 9.42236 6.66261
985 1 1.4425 11.7779 5.82979
986 1 2.35976e-16 11.7779 8.32827
987 1 2.885 11.7779 8.32827
988 1 4.32749 14.1335 7.49544
989 1 2.885 14.1335 9.99392
990 1 1.4425 14.1335 7.49544
991 1 5.76999 14.1335 9.99392
992 1 7.21249 16.4891 9.16109
993 1 5.76999 16.4891 11.6596
994 1 4.32749 16.4891 9.16109
995 1 8.65499 16.4891 11.6596
996 1 10.0975 18.8447 10.8267
997 1 8.65499 18.8447 13.3252
998 1 7.21249 18.8447 10.8267
999 1 11.54 18.8447 13.3252
1000 1 12.9825 21.2003 12.4924
1001 1 11.54 21.2003 14.9909
1002 1 10.0975 21.2003 12.4924
1003 1 14.425 21.2003 14.9909
1004 1 15.8675 23.5559 14.1581
1005 1 14.425 23.5559 16.6565
1006 1 12.9825 23.5559 14.1581
1007 1 17.31 23.5559 16.6565
1008 1 18.7525 25.9115 15.8237
1009 1 17.31 25.9115 18.3222
1010 1 15.8675 25.9115 15.8237
1011 1 20.195 25.9115 18.3222