ITEM: TIMESTEP
1000
ITEM: NUMBER OF ATOMS
1665
ITEM: BOX BOUNDS pp pp ss
-1.6320000000000000e+01 1.6320000000000000e+01
-1.6320000000000000e+01 1.6320000000000000e+01
-2.4482856000000002e+01 2.1304821777441472e+00
ITEM: ATOMS id type xu yu zu
1 1 -16.32 -16.32 -24.48
2 1 -14.28 -14.28 -24.48
3 1 -14.28 -16.32 -22.44
4 1 -16.32 -14.28 -22.44
5 1 -12.24 -16.32 -24.48
6 1 -10.2 -14.28 -24.48
7 1 -10.2 -16.32 -22.44
8 1 -12.24 -14.28 -22.44
9 1 -8.16 -16.32 -24.48
10 1 -6.12 -14.28 -24.48
11 1 -6.12 -16.32 -22.44
12 1 -8.16 -14.28 -22.44
13 1 -4.08 -16.32 -24.48
14 1 -2.04 -14.28 -24.48
15 1 -2.04 -16.32 -22.44
16 1 -4.08 -14.28 -22.44
17 1 -16.32 -12.24 -24.48
18 1 -14.28 -10.2 -24.48
19 1 -14.28 -12.24 -22.44
20 1 -16.32 -10.2 -22.44
21 1 -12.24 -12.24 -24.48
22 1 -10.2 -10.2 -24.48
23 1 -10.2 -12.24 -22.44
24 1 -12.24 -10.2 -22.44
25 1 -8.16 -12.24 -24.48
26 1 -6.12 -10.2 -24.48
27 1 -6.12 -12.24 -22.44
28 1 -8.16 -10.2 -22.44
29 1 -4.08 -12.24 -24.48
30 1 -2.04 -10.2 -24.48
31 1 -2.04 -12.24 -22.44
32 1 -4.08 -10.2 -22.44
33 1 -16.32 -8.16 -24.48
34 1 -14.28 -6.12 -24.48
35 1 -14.28 -8.16 -22.44
36 1 -16.32 -6.12 -22.44
37 1 -12.24 -8.16 -24.48
38 1 -10.2 -6.12 -24.48
39 1 -10.2 -8.16 -22.44
40 1 -12.24 -6.12 -22.44
41 1 -8.16 -8.16 -24.48
42 1 -6.12 -6.12 -24.48
43 1 -6.12 -8.16 -22.44
44 1 -8.16 -6.12 -22.44
45 1 -4.08 -8.16 -24.48
46 1 -2.04 -6.12 -24.48
47 1 -2.04 -8.16 -22.44
48 1 -4.08 -6.12 -22.44
49 1 -16.32 -4.08 -24.48
50 1 -14.28 -2.04 -24.48
51 1 -14.28 -4.08 -22.44
52 1 -16.32 -2.04 -22.44
53 1 -12.24 -4.08 -24.48
54 1 -10.2 -2.04 -24.48
55 1 -10.2 -4.08 -22.44
56 1 -12.24 -2.04 -22.44
57 1 -8.16 -4.08 -24.48
58 1 -6.12 -2.04 -24.48
59 1 -6.12 -4.08 -22.44
60 1 -8.16 -2.04 -22.44
61 1 -4.08 -4.08 -24.48
62 1 -2.04 -2.04 -24.48
63 1 -2.04 -4.08 -22.44
64 1 -4.08 -2.04 -22.44
65 1 -16.5208 -16.2482 -20.4419
66 1 -14.2019 -13.8235 -20.2495
67 1 -14.4829 -16.1869 -18.2332
68 1 -16.5677 -14.1536 -18.1697
69 1 -12.3757 -16.1102 -20.3955
70 1 -10.1395 -14.3976 -20.2055
71 1 -10.3668 -16.3886 -17.9717
72 1 -12.1883 -13.9443 -18.1933
73 1 -8.03377 -16.3042 -20.1976
74 1 -5.92456 -13.9795 -20.1546
75 1 -5.96993 -16.0831 -18.0573
76 1 -8.07938 -14.3214 -18.4834
77 1 -3.9966 -15.9384 -20.2873
78 1 -1.80854 -14.3478 -20.3238
79 1 -2.08936 -16.2101 -18.1875
80 1 -3.90493 -13.88 -18.2446
81 1 -16.5822 -12.4118 -20.235
82 1 -14.1134 -10.0266 -20.3563
83 1 -14.2594 -12.164 -18.3601
84 1 -16.068 -9.99804 -18.286
85 1 -11.7906 -12.054 -20.4417
86 1 -10.352 -10.0104 -19.8252
87 1 -9.92078 -12.2683 -18.1335
88 1 -12.3283 -10.3107 -18.0492
89 1 -8.21793 -12.0897 -20.451
90 1 -5.9342 -10.2168 -20.2114
91 1 -6.29987 -12.2068 -17.9008
92 1 -8.28433 -10.1594 -17.8686
93 1 -4.02223 -12.1021 -20.4232
94 1 -2.19601 -10.1997 -20.311
95 1 -1.63085 -12.465 -18.1919
96 1 -3.95924 -10.1056 -18.194
97 1 -16.404 -8.27836 -20.0996
98 1 -14.5442 -6.36946 -20.2173
99 1 -13.791 -8.06194 -18.1013
100 1 -16.4215 -6.13922 -17.9191
101 1 -12.3208 -7.90273 -20.4427
102 1 -10.2298 -6.53347 -20.2305
103 1 -10.1925 -7.88005 -17.8317
104 1 -12.4163 -5.93001 -17.7749
105 1 -8.0212 -8.15679 -20.1748
106 1 -6.27087 -6.03331 -20.0837
107 1 -6.01206 -8.17395 -18.0619
108 1 -7.9011 -6.2869 -17.7447
109 1 -4.37664 -8.07392 -20.334
110 1 -2.00444 -6.12369 -20.4747
111 1 -2.02573 -8.24353 -18.1924
112 1 -4.13554 -5.98367 -17.534
113 1 -16.2438 -4.01615 -20.0157
114 1 -14.6488 -1.95252 -20.3108
115 1 -14.4714 -3.87994 -17.6885
116 1 -16.5859 -1.41655 -18.3552
117 1 -12.6783 -4.05266 -19.9708
118 1 -10.3997 -2.2148 -20.1264
119 1 -10.0694 -3.89769 -18.1916
120 1 -12.5958 -2.00251 -18.0743
121 1 -8.32581 -4.06889 -20.3366
122 1 -6.13931 -2.15313 -20.1711
123 1 -6.15602 -4.09152 -17.9037
124 1 -8.11518 -1.85413 -18.0785
125 1 -4.158 -4.33172 -20.2781
126 1 -2.16806 -1.90667 -20.4677
127 1 -2.16936 -4.53009 -18.2423
128 1 -4.27155 -1.98756 -18.2869
129 1 -16.3137 -15.9888 -16.124
130 1 -14.0625 -14.274 -16.0539
131 1 -13.8661 -16.2057 -13.8614
132 1 -16.0155 -14.654 -13.7891
133 1 -12.6343 -16.3007 -16.2745
134 1 -10.4312 -14.2677 -16.1231
135 1 -9.81002 -16.235 -13.954
136 1 -11.9077 -14.3124 -13.8799
137 1 -7.8479 -16.0167 -15.8133
138 1 -5.95746 -14.1039 -15.9185
139 1 -6.11163 -16.1209 -13.6042
140 1 -8.02885 -13.9674 -13.9083
141 1 -4.16883 -16.0097 -15.8212
142 1 -1.86614 -14.3859 -15.9187
143 1 -1.84835 -16.3763 -13.9012
144 1 -4.10411 -14.5048 -13.7698
145 1 -16.3804 -12.4536 -15.7532
146 1 -14.2727 -10.3651 -15.9148
147 1 -14.0651 -12.3211 -14.3416
148 1 -16.2083 -10.3954 -13.7285
149 1 -12.144 -12.2125 -16.1306
150 1 -10.2424 -10.1192 -15.8487
151 1 -9.97228 -12.019 -13.4979
152 1 -12.151 -10.0493 -13.6427
153 1 -8.17071 -12.5778 -16.1013
154 1 -6.38956 -10.29 -15.5484
155 1 -5.99001 -12.1316 -13.6496
156 1 -7.96459 -9.88857 -13.5319
157 1 -3.74337 -12.3299 -15.8368
158 1 -1.91573 -10.0828 -15.9571
159 1 -1.7207 -12.4384 -13.8265
160 1 -3.92225 -10.1813 -13.848
161 1 -16.3446 -8.37231 -15.9847
162 1 -14.133 -6.19183 -15.5694
163 1 -14.3543 -8.31624 -13.7128
164 1 -16.4322 -6.3477 -13.7865
165 1 -12.2844 -8.14352 -15.8834
166 1 -10.3998 -5.82698 -15.9316
167 1 -10.1034 -8.12159 -13.9208
168 1 -12.366 -5.75857 -13.764
169 1 -8.20706 -8.06195 -15.6827
170 1 -6.15906 -6.06014 -15.5389
171 1 -5.8423 -8.04047 -13.7808
172 1 -8.00259 -6.18714 -13.7419
173 1 -4.09834 -8.37964 -15.8567
174 1 -1.78079 -6.0727 -15.8823
175 1 -1.77825 -7.96128 -13.9135
176 1 -4.00964 -6.21835 -13.9726
177 1 -16.1517 -4.19696 -15.459
178 1 -14.243 -1.74757 -15.8259
179 1 -14.2789 -3.93516 -13.6528
180 1 -16.5518 -2.03029 -13.8514
181 1 -12.5251 -3.81203 -15.9182
182 1 -10.3443 -2.09787 -16.1227
183 1 -10.3263 -3.58387 -13.8685
184 1 -12.285 -1.71086 -13.8222
185 1 -8.3991 -4.07911 -15.959
186 1 -6.17349 -1.89369 -16.3941
187 1 -6.03955 -4.03961 -13.6139
188 1 -8.36384 -1.94509 -13.8279
189 1 -3.76984 -3.86772 -15.7091
190 1 -1.91774 -1.97251 -15.9147
191 1 -1.96106 -4.22056 -13.8494
192 1 -4.12279 -2.14125 -13.5921
193 1 -16.5371 -16.2193 -11.4613
194 1 -13.8616 -13.8241 -12.0227
195 1 -11.954 -16.4568 -11.7824
196 1 -9.94411 -14.185 -11.7586
197 1 -7.92367 -16.2148 -11.7191
198 1 -6.16245 -14.1436 -11.423
199 1 -3.8412 -16.5763 -11.6693
200 1 -1.88679 -14.3012 -11.6588
201 1 -16.1887 -12.4813 -12.0374
202 1 -14.1108 -10.2073 -11.5979
203 1 -11.9905 -12.1596 -11.8323
204 1 -10.0916 -10.0535 -11.7551
205 1 -7.96511 -11.7535 -11.6196
206 1 -5.95241 -9.94468 -11.5816
207 1 -3.78882 -12.1912 -11.4747
208 1 -1.70516 -10.1737 -11.8377
209 1 -16.2935 -8.18795 -11.7893
210 1 -14.4107 -6.09442 -11.8526
211 1 -12.1711 -8.09064 -11.682
212 1 -10.1723 -6.12343 -12.1111
213 1 -7.96758 -8.0512 -11.4537
214 1 -5.76497 -6.23919 -11.5652
215 1 -3.83922 -8.21058 -11.5282
216 1 -2.0303 -6.28369 -11.7768
217 1 -16.3763 -3.87653 -11.7798
218 1 -14.3581 -1.9606 -11.5964
219 1 -12.1803 -4.12949 -11.8292
220 1 -10.0904 -1.91228 -11.5206
221 1 -8.20891 -4.18029 -11.6187
222 1 -6.38001 -1.98613 -11.6069
223 1 -3.81615 -4.33971 -11.7226
224 1 -1.86641 -2.15908 -11.5643
225 1 -14.3592 -16.0981 -9.9452
226 1 -16.3786 -14.0664 -9.63826
227 1 -9.94652 -16.2971 -9.68627
228 1 -12.0221 -14.2646 -9.71033
229 1 -6.03827 -16.4495 -9.61446
230 1 -7.92396 -14.3723 -9.43227
231 1 -2.12869 -16.4532 -9.5276
232 1 -3.82799 -14.3714 -9.67015
233 1 -14.2677 -12.3988 -9.49028
234 1 -16.6478 -10.3671 -9.77867
235 1 -10.0541 -12.2789 -9.64139
236 1 -11.9824 -10.1457 -9.37565
237 1 -5.70668 -12.1726 -9.45205
238 1 -7.94257 -10.2533 -9.4683
239 1 -1.64745 -11.9837 -9.64407
240 1 -3.8551 -10.0432 -9.58481
241 1 -14.1833 -8.37024 -9.81369
242 1 -16.2882 -6.08681 -9.68459
243 1 -10.0501 -8.12177 -9.61469
244 1 -12.0858 -6.18651 -9.85694
245 1 -5.98988 -8.15902 -9.44277
246 1 -8.09216 -6.23846 -9.62879
247 1 -1.87069 -8.15663 -9.25669
248 1 -3.99368 -6.41679 -9.53449
249 1 -14.5003 -4.17021 -9.68337
250 1 -16.4443 -2.07918 -9.64363
251 1 -10.1909 -4.27493 -9.64731
252 1 -12.3138 -2.33242 -9.91391
253 1 -6.0063 -4.36355 -9.55609
254 1 -8.24975 -2.05395 -9.48411
255 1 -1.9836 -4.02053 -9.67807
256 1 -4.15875 -2.03824 -9.8379
257 1 -16.0955 -16.303 -7.82629
258 1 -14.214 -14.2751 -7.50338
259 1 -14.169 -16.437 -5.55473
260 1 -16.1736 -14.3868 -5.65639
261 1 -12.0168 -16.2571 -7.62599
262 1 -10.0686 -14.2184 -7.50917
263 1 -10.2301 -16.3356 -5.59969
264 1 -12.0612 -14.1584 -5.46451
265 1 -8.19609 -16.3862 -7.40155
266 1 -5.97696 -14.3411 -7.56229
267 1 -6.16584 -16.3718 -5.47026
268 1 -8.17549 -14.2446 -5.66587
269 1 -4.29369 -16.4524 -7.62683
270 1 -2.05664 -14.6417 -7.63312
271 1 -2.21305 -16.3576 -5.44085
272 1 -4.11638 -14.3036 -5.49911
273 1 -16.3761 -12.2335 -7.33564
274 1 -14.3485 -10.2038 -7.61292
275 1 -14.1435 -12.3641 -5.24639
276 1 -16.2467 -10.2161 -5.42717
277 1 -12.1677 -12.2765 -7.73778
278 1 -10.1947 -10.2597 -7.40834
279 1 -10.1951 -12.1347 -5.66937
280 1 -12.3448 -10.3134 -5.64481
281 1 -8.08133 -12.3617 -7.53542
282 1 -6.02644 -10.1107 -7.56245
283 1 -6.01177 -12.0474 -5.51248
284 1 -8.15608 -10.1487 -5.51757
285 1 -3.82926 -12.2826 -7.55329
286 1 -1.82068 -10.2817 -7.5494
287 1 -2.22433 -12.2187 -5.39724
288 1 -3.99339 -10.1761 -5.47685
289 1 -16.2656 -8.22868 -7.7118
290 1 -14.3082 -6.32553 -7.71554
291 1 -14.2187 -8.27241 -5.47198
292 1 -16.3556 -6.00083 -5.66904
293 1 -12.1184 -8.15686 -7.62113
294 1 -10.0864 -6.24137 -7.52274
295 1 -10.3605 -8.07641 -5.39852
296 1 -12.2504 -6.00201 -5.60761
297 1 -8.12799 -8.16614 -7.40311
298 1 -6.21093 -6.23708 -7.37896
299 1 -5.92003 -8.20973 -5.56366
300 1 -8.20509 -6.18116 -5.39121
301 1 -4.00992 -8.16428 -7.47519
302 1 -2.04559 -6.08633 -7.59627
303 1 -2.12003 -8.24762 -5.58967
304 1 -3.95267 -6.09276 -5.45404
305 1 -16.4306 -4.06946 -7.52874
306 1 -14.3143 -2.13971 -7.64669
307 1 -14.2019 -4.00448 -5.69524
308 1 -16.1699 -1.85964 -5.50167
309 1 -12.4108 -4.15962 -7.87094
310 1 -10.2749 -2.17983 -7.60573
311 1 -10.1066 -4.12503 -5.63585
312 1 -12.0264 -2.00293 -5.56455
313 1 -8.04053 -4.22805 -7.43255
314 1 -6.16121 -2.05894 -7.77755
315 1 -6.04677 -4.07747 -5.57326
316 1 -8.24444 -2.07565 -5.74011
317 1 -4.17696 -4.18664 -7.69354
318 1 -2.06453 -2.03549 -7.60625
319 1 -2.02345 -3.94069 -5.4288
320 1 -4.12253 -1.83342 -5.42138
321 1 -16.2486 -16.2649 -3.61828
322 1 -14.2216 -14.5408 -3.52206
323 1 -14.2186 -16.3881 -1.59305
324 1 -16.3438 -14.3203 -1.53924
325 1 -12.1418 -16.3319 -3.53532
326 1 -10.2261 -14.3399 -3.50318
327 1 -10.2339 -16.3455 -1.48336
328 1 -12.1427 -14.1209 -1.4183
329 1 -8.16833 -16.2836 -3.5986
330 1 -6.00812 -14.6388 -3.40966
331 1 -5.87496 -16.5341 -1.38562
332 1 -8.14099 -14.4885 -1.21395
333 1 -4.08316 -16.6555 -3.53886
334 1 -2.02454 -14.4571 -3.32273
335 1 -2.06494 -16.4042 -1.50798
336 1 -4.00042 -14.3564 -1.53243
337 1 -16.3669 -12.3321 -3.51255
338 1 -14.3554 -10.3419 -3.33115
339 1 -14.3747 -12.1178 -1.35649
340 1 -16.5865 -9.90019 -1.61407
341 1 -12.0374 -12.2478 -3.47014
342 1 -10.2521 -10.1619 -3.58161
343 1 -10.1472 -12.2223 -1.35096
344 1 -12.1417 -10.3681 -1.29953
345 1 -8.33489 -12.4036 -3.51569
346 1 -6.11425 -10.11 -3.39851
347 1 -6.22869 -12.3932 -1.61725
348 1 -8.35418 -10.1743 -1.50976
349 1 -4.13703 -12.1266 -3.37295
350 1 -1.99466 -10.1492 -3.21767
351 1 -1.91699 -12.268 -1.3517
352 1 -4.0019 -9.98639 -1.52603
353 1 -16.2849 -8.03819 -3.49919
354 1 -14.2557 -6.13164 -3.6913
355 1 -14.3001 -8.12393 -1.62381
356 1 -16.3106 -6.12698 -1.43446
357 1 -12.3888 -8.23767 -3.4843
358 1 -10.1201 -6.0096 -3.33646
359 1 -10.2272 -8.03442 -1.52058
360 1 -12.3218 -6.11526 -1.50549
361 1 -8.13534 -8.16695 -3.58597
362 1 -6.11199 -6.25692 -3.49917
363 1 -6.21518 -8.10567 -1.37929
364 1 -8.27288 -5.96355 -1.3593
365 1 -3.91344 -8.04934 -3.49967
366 1 -1.75663 -6.03544 -3.61672
367 1 -2.01204 -7.98374 -1.26165
368 1 -4.15723 -6.08964 -1.50727
369 1 -16.256 -4.13262 -3.47145
370 1 -14.3032 -2.18085 -3.43421
371 1 -14.3199 -4.23756 -1.51097
372 1 -16.4224 -2.08144 -1.35931
373 1 -12.1965 -4.09863 -3.47486
374 1 -10.1811 -1.96527 -3.39677
375 1 -10.2672 -4.02533 -1.29327
376 1 -12.4547 -2.28074 -1.39942
377 1 -8.02497 -4.19019 -3.38711
378 1 -5.98319 -2.08312 -3.49782
379 1 -5.84719 -4.22243 -1.27841
380 1 -7.97053 -2.01115 -1.32102
381 1 -3.8664 -3.80426 -3.53426
382 1 -1.89835 -1.78435 -3.43249
383 1 -1.87372 -3.91857 -1.37674
384 1 -3.8682 -2.04167 -1.26157
385 1 -16.1416 -16.2845 0.275614
386 1 -14.1238 -14.1996 0.178046
387 1 -12.2252 -16.2342 0.501142
388 1 -10.2046 -14.3211 0.754228
389 1 -7.75538 -16.3396 0.628237
390 1 -5.9428 -14.3309 0.433011
391 1 -3.95397 -16.3459 0.795217
392 1 -2.21018 -14.325 0.530487
393 1 -16.6708 -12.1982 0.24017
394 1 -14.6365 -9.83159 0.329951
395 1 -12.2354 -12.2371 0.624726
396 1 -10.3822 -10.0101 0.52188
397 1 -8.1608 -12.2699 0.346403
398 1 -6.12453 -10.2178 0.084487
399 1 -4.18282 -12.2238 0.216434
400 1 -1.90716 -10.1506 0.33908
401 1 -16.6917 -7.79077 0.65458
402 1 -14.4743 -6.09587 0.576211
403 1 -12.4058 -8.10016 0.246119
404 1 -10.252 -6.15502 0.624036
405 1 -8.13393 -7.91148 0.292385
406 1 -5.97799 -6.08918 0.534899
407 1 -4.02473 -8.23649 0.470837
408 1 -1.87979 -6.02235 0.743636
409 1 -16.3231 -4.20494 0.684519
410 1 -14.5946 -2.13045 0.465061
411 1 -12.2735 -4.15979 0.523563
412 1 -10.1169 -2.11135 0.229427
413 1 -7.92653 -3.96316 0.539625
414 1 -5.99376 -1.95578 0.667952
415 1 -4.04041 -4.24431 0.666735
416 1 -1.91489 -2.19429 0.81418
417 1 -16.32 0 -24.48
418 1 -14.28 2.04 -24.48
419 1 -14.28 0 -22.44
420 1 -16.32 2.04 -22.44
421 1 -12.24 0 -24.48
422 1 -10.2 2.04 -24.48
423 1 -10.2 0 -22.44
424 1 -12.24 2.04 -22.44
425 1 -8.16 0 -24.48
426 1 -6.12 2.04 -24.48
427 1 -6.12 0 -22.44
428 1 -8.16 2.04 -22.44
429 1 -4.08 0 -24.48
430 1 -2.04 2.04 -24.48
431 1 -2.04 0 -22.44
432 1 -4.08 2.04 -22.44
433 1 -16.32 4.08 -24.48
434 1 -14.28 6.12 -24.48
435 1 -14.28 4.08 -22.44
436 1 -16.32 6.12 -22.44
437 1 -12.24 4.08 -24.48
438 1 -10.2 6.12 -24.48
439 1 -10.2 4.08 -22.44
440 1 -12.24 6.12 -22.44
441 1 -8.16 4.08 -24.48
442 1 -6.12 6.12 -24.48
443 1 -6.12 4.08 -22.44
444 1 -8.16 6.12 -22.44
445 1 -4.08 4.08 -24.48
446 1 -2.04 6.12 -24.48
447 1 -2.04 4.08 -22.44
448 1 -4.08 6.12 -22.44
449 1 -16.32 8.16 -24.48
450 1 -14.28 10.2 -24.48
451 1 -14.28 8.16 -22.44
452 1 -16.32 10.2 -22.44
453 1 -12.24 8.16 -24.48
454 1 -10.2 10.2 -24.48
455 1 -10.2 8.16 -22.44
456 1 -12.24 10.2 -22.44
457 1 -8.16 8.16 -24.48
458 1 -6.12 10.2 -24.48
459 1 -6.12 8.16 -22.44
460 1 -8.16 10.2 -22.44
461 1 -4.08 8.16 -24.48
462 1 -2.04 10.2 -24.48
463 1 -2.04 8.16 -22.44
464 1 -4.08 10.2 -22.44
465 1 -16.32 12.24 -24.48
466 1 -14.28 14.28 -24.48
467 1 -14.28 12.24 -22.44
468 1 -16.32 14.28 -22.44
469 1 -12.24 12.24 -24.48
470 1 -10.2 14.28 -24.48
471 1 -10.2 12.24 -22.44
472 1 -12.24 14.28 -22.44
473 1 -8.16 12.24 -24.48
474 1 -6.12 14.28 -24.48
475 1 -6.12 12.24 -22.44
476 1 -8.16 14.28 -22.44
477 1 -4.08 12.24 -24.48
478 1 -2.04 14.28 -24.48
479 1 -2.04 12.24 -22.44
480 1 -4.08 14.28 -22.44
481 1 -16.2707 0.197671 -20.5466
482 1 -14.0066 1.70686 -20.3897
483 1 -14.0875 0.230123 -18.2212
484 1 -16.0698 1.91127 -18.2827
485 1 -12.0023 -0.0736907 -20.4505
486 1 -10.134 2.15828 -20.397
487 1 -10.4999 -0.154338 -18.2488
488 1 -11.9524 2.00425 -18.5359
489 1 -8.45286 0.144872 -20.3156
490 1 -6.01275 2.08561 -20.1752
491 1 -6.19185 0.267716 -18.1468
492 1 -8.08464 1.9291 -18.0472
493 1 -4.22142 -0.141343 -20.3354
494 1 -2.20487 1.89499 -20.6006
495 1 -2.15985 -0.0846862 -18.1238
496 1 -4.26456 2.14035 -18.4043
497 1 -16.2661 3.85295 -20.4386
498 1 -14.2224 6.11581 -20.2239
499 1 -14.108 3.85394 -18.2226
500 1 -16.5546 6.02029 -18.1352
501 1 -12.2739 3.9374 -20.6053
502 1 -10.2473 5.82319 -20.1561
503 1 -9.87636 4.31435 -18.1647
504 1 -12.2537 6.04005 -18.2835
505 1 -7.83346 4.06631 -20.0747
506 1 -6.08849 5.95343 -19.8894
507 1 -6.22567 3.9729 -17.7884
508 1 -7.86701 6.20499 -17.8648
509 1 -3.96468 4.21944 -20.5406
510 1 -2.03586 6.04136 -20.228
511 1 -1.83557 4.06593 -18.3268
512 1 -4.19189 5.92089 -18.0914
513 1 -16.2705 8.2098 -20.4897
514 1 -14.2495 9.97004 -20.1869
515 1 -14.5219 7.83881 -18.1785
516 1 -16.0003 10.084 -17.8351
517 1 -11.8987 8.09614 -20.4009
518 1 -10.3914 10.3742 -20.2013
519 1 -10.1522 8.17723 -18.0463
520 1 -12.2429 10.4719 -18.0541
521 1 -8.23139 8.09706 -20.2499
522 1 -6.19141 10.218 -20.3665
523 1 -5.87453 8.13708 -18.1286
524 1 -8.06428 10.0991 -17.8662
525 1 -3.78039 8.27509 -20.4749
526 1 -2.06539 10.2601 -20.1478
527 1 -1.99844 8.22684 -18.2071
528 1 -4.4348 10.245 -18.0201
529 1 -16.2839 12.0079 -20.0253
530 1 -14.4527 14.2741 -19.9977
531 1 -14.1833 12.3373 -17.9182
532 1 -16.2789 13.9504 -18.0627
533 1 -12.521 12.1999 -20.2307
534 1 -10.1092 14.203 -20.254
535 1 -10.3497 12.1931 -17.9211
536 1 -12.3042 14.4215 -18.3902
537 1 -8.21645 12.324 -19.9915
538 1 -5.95599 14.4681 -20.0847
539 1 -6.34289 12.3807 -17.8661
540 1 -8.28113 14.6183 -17.8821
541 1 -3.94493 11.9031 -20.1938
542 1 -2.20051 14.3119 -20.1869
543 1 -2.05938 12.3572 -18.0837
544 1 -4.12226 14.205 -18.1261
545 1 -16.862 0.423619 -15.829
546 1 -14.2555 1.73952 -15.9799
547 1 -14.6713 -0.0201871 -13.6997
548 1 -16.455 2.06918 -13.4921
549 1 -12.1176 0.352162 -16.2256
550 1 -10.3758 2.02222 -15.9162
551 1 -10.2636 0.0218617 -13.8165
552 1 -12.3707 1.53884 -13.7185
553 1 -8.18643 0.0516769 -16.0015
554 1 -6.13692 1.95936 -15.6609
555 1 -6.1655 0.139453 -13.6899
556 1 -8.47196 2.0278 -13.8094
557 1 -4.12436 0.207242 -15.8945
558 1 -2.19192 2.1843 -16.5607
559 1 -2.21524 -0.381962 -13.6299
560 1 -3.62145 1.93848 -13.9921
561 1 -16.1977 4.00677 -15.6474
562 1 -14.4153 5.65425 -15.9094
563 1 -14.1455 3.86352 -13.6369
564 1 -16.3407 5.97713 -13.7638
565 1 -12.1331 4.09414 -16.2494
566 1 -10.0771 6.04213 -15.8579
567 1 -10.2945 3.99326 -13.8228
568 1 -12.1256 5.90842 -13.8932
569 1 -8.32422 4.08263 -15.7145
570 1 -6.03493 6.11694 -15.7067
571 1 -6.28432 4.39673 -13.6397
572 1 -8.06413 6.42006 -13.9666
573 1 -4.00016 3.78729 -15.8237
574 1 -1.8688 6.08125 -15.8615
575 1 -1.91303 3.98078 -13.898
576 1 -3.72996 6.05675 -13.9058
577 1 -16.0784 7.94414 -15.7402
578 1 -14.092 9.81014 -15.8597
579 1 -14.1717 7.93806 -13.7343
580 1 -16.0667 9.84263 -13.6132
581 1 -12.4694 7.45218 -16.103
582 1 -10.3712 10.0295 -16.1363
583 1 -10.593 8.15822 -14.1563
584 1 -12.2489 10.2876 -13.7739
585 1 -8.38855 8.25176 -15.9061
586 1 -5.87068 10.4433 -15.8704
587 1 -5.94039 8.19563 -13.6184
588 1 -7.91057 10.4373 -13.6932
589 1 -3.92747 8.02984 -15.8298
590 1 -1.93253 10.2219 -15.7791
591 1 -2.02006 8.0996 -13.7282
592 1 -3.77793 10.3811 -13.7201
593 1 -16.1171 12.0039 -15.5825
594 1 -14.3291 14.3661 -16.0565
595 1 -14.288 12.2845 -13.5455
596 1 -16.1673 14.4785 -14.0073
597 1 -12.0886 12.5619 -15.8231
598 1 -9.88452 14.4133 -15.8549
599 1 -10.0003 12.4874 -13.9639
600 1 -12.3453 14.2991 -13.7909
601 1 -8.39278 11.9491 -15.843
602 1 -6.15185 14.2212 -16.0503
603 1 -5.69467 12.4258 -13.9411
604 1 -7.83722 14.2122 -14.1331
605 1 -4.03099 12.1986 -16.0302
606 1 -2.06317 14.548 -16.2736
607 1 -2.10912 12.5632 -13.9684
608 1 -4.11271 14.6247 -14.2347
609 1 -16.64 -0.0605044 -11.7626
610 1 -14.1993 1.97668 -11.4342
611 1 -12.2957 -0.0718063 -11.4298
612 1 -10.3935 1.96765 -11.3537
613 1 -8.28673 0.176828 -11.6999
614 1 -6.22517 2.18551 -11.7771
615 1 -4.17453 -0.0298995 -11.7268
616 1 -1.93715 2.03894 -11.5524
617 1 -16.3381 4.00545 -11.29
618 1 -14.5318 6.10521 -11.6323
619 1 -12.305 4.06309 -11.8644
620 1 -10.1855 6.06216 -11.779
621 1 -8.42757 3.94413 -11.8274
622 1 -6.42833 6.17249 -11.5448
623 1 -4.01616 3.8406 -11.7554
624 1 -2.11898 6.07589 -11.755
625 1 -16.2779 8.2647 -11.4507
626 1 -14.3767 10.0735 -11.383
627 1 -12.2248 8.12314 -11.8502
628 1 -10.3103 10.4935 -11.9436
629 1 -8.25515 8.34703 -11.8667
630 1 -5.96544 10.2512 -11.7815
631 1 -4.01681 8.22777 -11.8519
632 1 -1.82473 10.4119 -11.6611
633 1 -16.2959 12.0868 -11.9081
634 1 -14.2607 14.5449 -11.5836
635 1 -12.4969 12.3163 -11.5556
636 1 -10.1834 14.1809 -11.6294
637 1 -8.11238 12.1339 -11.6337
638 1 -5.96264 14.2583 -11.7071
639 1 -3.814 12.3259 -11.6887
640 1 -1.72739 14.1341 -11.5861
641 1 -14.1921 -0.00397586 -9.36309
642 1 -16.3614 1.90432 -9.45555
643 1 -10.2901 -0.0595363 -9.54228
644 1 -12.4182 1.95661 -9.51488
645 1 -5.87212 0.24254 -9.72242
646 1 -8.07559 2.08758 -9.59764
647 1 -2.11658 -0.112553 -9.69415
648 1 -4.05049 2.11238 -9.53464
649 1 -14.3034 4.11741 -9.44365
650 1 -16.3956 6.0814 -9.31605
651 1 -10.3761 4.12879 -9.65371
652 1 -12.4995 6.0677 -9.70916
653 1 -6.07908 4.19809 -9.59441
654 1 -8.32887 6.09214 -9.7537
655 1 -2.0887 4.13403 -9.45016
656 1 -4.08566 6.25976 -9.87448
657 1 -14.2475 8.04249 -9.64174
658 1 -16.3851 10.1353 -9.43013
659 1 -10.3777 8.21262 -9.83748
660 1 -12.3064 10.2045 -9.64073
661 1 -6.25054 7.99553 -9.91194
662 1 -8.28519 10.1496 -9.57414
663 1 -1.86034 8.24427 -9.65092
664 1 -3.98434 10.0804 -9.74732
665 1 -14.3642 12.3085 -9.74085
666 1 -16.2077 14.3121 -9.79966
667 1 -10.1961 12.3128 -9.6323
668 1 -12.0462 14.4877 -9.58547
669 1 -5.95743 11.9463 -9.52424
670 1 -8.00846 14.3599 -9.6207
671 1 -2.09705 12.0668 -9.25634
672 1 -4.10172 14.0469 -9.53303
673 1 -16.2158 -0.273122 -7.40497
674 1 -14.187 1.97495 -7.30329
675 1 -14.1573 0.0480395 -5.45008
676 1 -16.2304 2.20101 -5.50694
677 1 -12.2587 -0.269335 -7.59334
678 1 -10.1592 2.09775 -7.65619
679 1 -10.1569 -0.0681304 -5.77241
680 1 -12.0962 2.2167 -5.42123
681 1 -8.10866 0.118508 -7.62425
682 1 -6.05563 1.89508 -7.36574
683 1 -6.21911 0.0250885 -5.35441
684 1 -8.13858 2.14743 -5.60802
685 1 -4.14479 -0.0821219 -7.42231
686 1 -1.98963 1.99448 -7.30752
687 1 -1.91008 -0.0275759 -5.5391
688 1 -3.93405 1.9288 -5.33635
689 1 -16.1787 4.12697 -7.61101
690 1 -14.2565 6.23651 -7.48737
691 1 -14.0672 4.31698 -5.48512
692 1 -16.296 6.06665 -5.89175
693 1 -12.1321 4.20936 -7.45167
694 1 -10.1627 6.2032 -7.9787
695 1 -10.211 4.35167 -5.54573
696 1 -12.1199 6.34343 -5.60875
697 1 -8.19289 4.09974 -7.72817
698 1 -6.18266 6.27923 -7.59079
699 1 -6.07269 4.08095 -5.45715
700 1 -8.20241 6.10234 -5.61679
701 1 -4.17594 4.13545 -7.42951
702 1 -2.094 6.14815 -7.60412
703 1 -1.95835 3.98345 -5.59458
704 1 -4.10196 6.22005 -5.50133
705 1 -16.3612 8.08826 -7.52812
706 1 -14.2415 10.1801 -7.76361
707 1 -14.2375 8.34421 -5.74485
708 1 -16.1801 10.2713 -5.57158
709 1 -12.1568 8.3268 -7.64854
710 1 -10.3537 10.4049 -7.58716
711 1 -10.1631 8.08762 -5.64017
712 1 -12.083 10.1928 -5.69243
713 1 -8.14543 8.234 -7.50268
714 1 -6.20364 10.0696 -7.62623
715 1 -6.13519 8.1853 -5.51565
716 1 -8.11426 10.2391 -5.61873
717 1 -4.17502 8.16666 -7.71236
718 1 -2.01664 9.96485 -7.53915
719 1 -1.96152 7.98785 -5.45584
720 1 -3.96554 10.1455 -5.62923
721 1 -16.1598 12.509 -7.54053
722 1 -14.0541 14.4862 -7.56838
723 1 -14.1547 12.2264 -5.73993
724 1 -16.2105 14.4088 -5.51951
725 1 -12.2229 12.2629 -7.69398
726 1 -9.98347 14.2503 -7.76083
727 1 -10.1802 12.3067 -5.76429
728 1 -12.0703 14.0239 -5.71429
729 1 -7.90932 12.1581 -7.65751
730 1 -6.00422 14.2688 -7.50712
731 1 -6.05388 12.1599 -5.56263
732 1 -8.12771 14.1764 -5.43439
733 1 -4.07055 12.1036 -7.38828
734 1 -2.20994 14.277 -7.39585
735 1 -1.96534 12.1652 -5.51725
736 1 -4.09732 14.149 -5.38173
737 1 -16.1763 -0.104403 -3.39876
738 1 -14.3854 2.12937 -3.45348
739 1 -14.2444 -0.330963 -1.35104
740 1 -16.1804 1.93095 -1.46874
741 1 -12.1943 -0.0998017 -3.32415
742 1 -10.1252 1.9852 -3.49537
743 1 -10.049 -0.0824836 -1.46576
744 1 -12.3433 1.69556 -1.44073
745 1 -8.14824 -0.0270533 -3.64343
746 1 -5.9945 1.98308 -3.54956
747 1 -5.99454 -0.0766281 -1.47718
748 1 -8.07045 1.91701 -1.50335
749 1 -3.83788 0.119678 -3.37321
750 1 -1.95967 2.09654 -3.13781
751 1 -2.14027 0.0128079 -0.882236
752 1 -4.11931 1.88664 -1.2984
753 1 -16.3067 4.03332 -3.62144
754 1 -14.264 6.24825 -3.73818
755 1 -14.3672 4.09118 -1.62495
756 1 -16.2143 6.05568 -1.67031
757 1 -12.1949 3.98876 -3.29363
758 1 -10.0444 5.94363 -3.45684
759 1 -10.1869 3.77138 -1.47302
760 1 -12.291 6.21755 -1.48184
761 1 -8.06819 3.9579 -3.63567
762 1 -6.02054 5.96454 -3.6022
763 1 -6.06151 3.87756 -1.44611
764 1 -8.16119 5.91203 -1.60039
765 1 -3.87986 4.03042 -3.38962
766 1 -2.00361 5.89921 -3.53831
767 1 -1.97155 4.04382 -1.31813
768 1 -3.9792 5.87225 -1.33036
769 1 -16.2979 8.22541 -3.78585
770 1 -14.1538 10.1264 -3.81987
771 1 -14.2058 8.13959 -1.66885
772 1 -16.1906 10.3703 -1.38568
773 1 -11.994 8.2335 -3.57567
774 1 -10.1722 10.3681 -3.5862
775 1 -10.2789 8.04622 -1.46076
776 1 -12.2751 10.3158 -1.33242
777 1 -8.10292 7.94651 -3.60424
778 1 -6.19276 10.1518 -3.48765
779 1 -5.99849 8.011 -1.54893
780 1 -8.09549 10.1743 -1.65976
781 1 -3.96915 8.02186 -3.3536
782 1 -1.96309 10.1082 -3.39106
783 1 -2.10253 7.8519 -1.3379
784 1 -3.98599 10.0988 -1.53588
785 1 -16.1451 12.2449 -3.69933
786 1 -14.1499 14.0694 -3.62306
787 1 -14.2606 12.3709 -1.51626
788 1 -16.2467 14.301 -1.60467
789 1 -12.1917 12.267 -3.59327
790 1 -10.1608 14.2517 -3.40901
791 1 -10.2016 12.2455 -1.42191
792 1 -12.2222 14.3637 -1.42537
793 1 -8.24765 12.3266 -3.62187
794 1 -6.18674 14.1803 -3.5314
795 1 -5.95605 12.1359 -1.50083
796 1 -7.92228 14.3151 -1.40397
797 1 -4.00673 11.8847 -3.4511
798 1 -1.90184 14.0929 -3.30956
799 1 -2.10491 12.0923 -1.37527
800 1 -4.06398 13.9825 -1.4775
801 1 -16.2822 -0.0721608 0.547823
802 1 -14.2087 1.99813 0.414343
803 1 -12.3606 0.0124355 0.390092
804 1 -10.2685 1.87135 0.432903
805 1 -8.08302 0.0287797 0.509651
806 1 -6.14408 2.15682 0.74568
807 1 -4.09881 -0.0499744 0.876722
808 1 -1.86953 2.19079 0.786611
809 1 -16.3045 4.0128 0.522961
810 1 -14.1638 6.04817 0.317704
811 1 -12.1724 4.0974 0.345754
812 1 -10.2543 6.0529 0.456638
813 1 -8.12808 4.1434 0.501609
814 1 -6.25001 6.18008 0.289565
815 1 -4.02954 3.78683 0.495814
816 1 -2.20658 6.15016 0.745577
817 1 -16.2084 8.14208 0.393938
818 1 -14.3708 10.2929 0.542713
819 1 -12.267 8.17671 0.424406
820 1 -10.2548 10.1577 0.374802
821 1 -8.18946 8.09894 0.446055
822 1 -6.2282 9.85815 0.260978
823 1 -4.17845 8.16924 0.591641
824 1 -2.13765 9.97021 0.385465
825 1 -16.1895 12.5394 0.430978
826 1 -14.1775 14.4814 0.550441
827 1 -12.3078 12.5479 0.470358
828 1 -10.1269 14.4743 0.359629
829 1 -8.06759 12.2064 0.226656
830 1 -5.90615 14.1699 0.667837
831 1 -4.04065 12.1103 0.402905
832 1 -2.14435 14.4055 0.494164
833 1 0 -16.32 -24.48
834 1 2.04 -14.28 -24.48
835 1 2.04 -16.32 -22.44
836 1 0 -14.28 -22.44
837 1 4.08 -16.32 -24.48
838 1 6.12 -14.28 -24.48
839 1 6.12 -16.32 -22.44
840 1 4.08 -14.28 -22.44
841 1 8.16 -16.32 -24.48
842 1 10.2 -14.28 -24.48
843 1 10.2 -16.32 -22.44
844 1 8.16 -14.28 -22.44
845 1 12.24 -16.32 -24.48
846 1 14.28 -14.28 -24.48
847 1 14.28 -16.32 -22.44
848 1 12.24 -14.28 -22.44
849 1 0 -12.24 -24.48
850 1 2.04 -10.2 -24.48
851 1 2.04 -12.24 -22.44
852 1 0 -10.2 -22.44
853 1 4.08 -12.24 -24.48
854 1 6.12 -10.2 -24.48
855 1 6.12 -12.24 -22.44
856 1 4.08 -10.2 -22.44
857 1 8.16 -12.24 -24.48
858 1 10.2 -10.2 -24.48
859 1 10.2 -12.24 -22.44
860 1 8.16 -10.2 -22.44
861 1 12.24 -12.24 -24.48
862 1 14.28 -10.2 -24.48
863 1 14.28 -12.24 -22.44
864 1 12.24 -10.2 -22.44
865 1 0 -8.16 -24.48
866 1 2.04 -6.12 -24.48
867 1 2.04 -8.16 -22.44
868 1 0 -6.12 -22.44
869 1 4.08 -8.16 -24.48
870 1 6.12 -6.12 -24.48
871 1 6.12 -8.16 -22.44
872 1 4.08 -6.12 -22.44
873 1 8.16 -8.16 -24.48
874 1 10.2 -6.12 -24.48
875 1 10.2 -8.16 -22.44
876 1 8.16 -6.12 -22.44
877 1 12.24 -8.16 -24.48
878 1 14.28 -6.12 -24.48
879 1 14.28 -8.16 -22.44
880 1 12.24 -6.12 -22.44
881 1 0 -4.08 -24.48
882 1 2.04 -2.04 -24.48
883 1 2.04 -4.08 -22.44
884 1 0 -2.04 -22.44
885 1 4.08 -4.08 -24.48
886 1 6.12 -2.04 -24.48
887 1 6.12 -4.08 -22.44
888 1 4.08 -2.04 -22.44
889 1 8.16 -4.08 -24.48
890 1 10.2 -2.04 -24.48
891 1 10.2 -4.08 -22.44
892 1 8.16 -2.04 -22.44
893 1 12.24 -4.08 -24.48
894 1 14.28 -2.04 -24.48
895 1 14.28 -4.08 -22.44
896 1 12.24 -2.04 -22.44
897 1 -0.0779943 -16.5404 -20.5582
898 1 1.87671 -14.3745 -20.4337
899 1 2.22518 -16.2698 -18.2833
900 1 0.223124 -14.5979 -18.126
901 1 4.05874 -16.2347 -20.3787
902 1 6.28601 -14.8366 -19.8593
903 1 5.78464 -17.0461 -17.7932
904 1 4.36198 -14.3763 -18.0723
905 1 8.50109 -16.5266 -20.6552
906 1 10.4695 -14.0516 -20.3962
907 1 10.2888 -16.2689 -18.1354
908 1 8.22778 -14.9893 -18.113
909 1 12.2599 -16.2727 -20.3216
910 1 13.8653 -14.2315 -20.2798
911 1 14.6438 -16.6502 -17.99
912 1 12.3092 -14.5344 -17.9531
913 1 -0.101469 -12.0032 -20.2496
914 1 2.09678 -10.2089 -20.0273
915 1 1.98592 -12.3346 -18.3445
916 1 0.0463754 -10.3249 -18.2678
917 1 4.40718 -12.5552 -20.1776
918 1 5.9933 -10.1065 -20.0717
919 1 6.17291 -12.5546 -17.7788
920 1 3.96973 -10.5634 -18.0799
921 1 7.80965 -12.412 -20.2388
922 1 10.3402 -10.1929 -20.1172
923 1 10.3223 -12.6848 -18.1516
924 1 8.06836 -10.6388 -18.0137
925 1 12.1814 -12.1713 -20.3387
926 1 14.2974 -10.1899 -20.2641
927 1 14.1685 -11.9524 -18.3396
928 1 12.1976 -9.73755 -18.0493
929 1 0.0664634 -8.30826 -20.4674
930 1 1.852 -6.16073 -20.29
931 1 2.34147 -8.18966 -17.9265
932 1 0.183224 -6.46279 -18.4225
933 1 4.03284 -8.0564 -20.4958
934 1 6.20305 -6.19862 -20.6151
935 1 5.98757 -8.50464 -18.101
936 1 4.08723 -5.90039 -18.2127
937 1 8.24018 -8.64747 -19.7253
938 1 10.3884 -6.00245 -20.0597
939 1 10.3205 -7.93557 -18.1125
940 1 7.83889 -6.37033 -18.0433
941 1 12.2535 -8.48225 -20.2656
942 1 13.8601 -6.18608 -20.5698
943 1 14.3574 -8.15187 -17.9955
944 1 12.3897 -5.89319 -18.0625
945 1 -0.353635 -4.13009 -20.1933
946 1 1.93955 -2.06516 -20.3618
947 1 1.69702 -4.22161 -18.2112
948 1 -0.0188556 -1.76789 -18.2113
949 1 4.00412 -4.31629 -20.1289
950 1 6.35138 -1.83352 -20.2486
951 1 6.22968 -4.36089 -18.1567
952 1 3.94375 -2.60735 -18.3125
953 1 8.28244 -4.13596 -20.3807
954 1 10.023 -1.84435 -20.3363
955 1 9.85168 -4.1764 -17.9686
956 1 8.27154 -2.00549 -18.3143
957 1 12.1118 -4.0639 -20.237
958 1 14.3006 -2.36673 -20.0793
959 1 14.4916 -3.89519 -17.8645
960 1 12.3061 -1.76409 -18.3099
961 1 0.0714816 -16.4841 -16.145
962 1 2.20984 -14.4698 -15.9291
963 1 2.11693 -16.4165 -13.6199
964 1 0.119309 -14.7061 -13.819
965 1 4.18004 -16.2384 -15.892
966 1 6.18152 -14.3485 -15.7528
967 1 6.23962 -16.4751 -13.9591
968 1 4.24425 -14.2194 -13.7568