ITEM: TIMESTEP
1000
ITEM: NUMBER OF ATOMS
1665
ITEM: BOX BOUNDS pp pp ss
-1.4456000000000000e+01 1.4456000000000000e+01
-1.4456000000000000e+01 1.4456000000000000e+01
-2.1686529799999999e+01 2.5335863967571028e+00
ITEM: ATOMS id type xu yu zu
1 1 -14.456 -14.456 -21.684
2 1 -12.649 -12.649 -21.684
3 1 -12.649 -14.456 -19.877
4 1 -14.456 -12.649 -19.877
5 1 -10.842 -14.456 -21.684
6 1 -9.035 -12.649 -21.684
7 1 -9.035 -14.456 -19.877
8 1 -10.842 -12.649 -19.877
9 1 -7.228 -14.456 -21.684
10 1 -5.421 -12.649 -21.684
11 1 -5.421 -14.456 -19.877
12 1 -7.228 -12.649 -19.877
13 1 -3.614 -14.456 -21.684
14 1 -1.807 -12.649 -21.684
15 1 -1.807 -14.456 -19.877
16 1 -3.614 -12.649 -19.877
17 1 -14.456 -10.842 -21.684
18 1 -12.649 -9.035 -21.684
19 1 -12.649 -10.842 -19.877
20 1 -14.456 -9.035 -19.877
21 1 -10.842 -10.842 -21.684
22 1 -9.035 -9.035 -21.684
23 1 -9.035 -10.842 -19.877
24 1 -10.842 -9.035 -19.877
25 1 -7.228 -10.842 -21.684
26 1 -5.421 -9.035 -21.684
27 1 -5.421 -10.842 -19.877
28 1 -7.228 -9.035 -19.877
29 1 -3.614 -10.842 -21.684
30 1 -1.807 -9.035 -21.684
31 1 -1.807 -10.842 -19.877
32 1 -3.614 -9.035 -19.877
33 1 -14.456 -7.228 -21.684
34 1 -12.649 -5.421 -21.684
35 1 -12.649 -7.228 -19.877
36 1 -14.456 -5.421 -19.877
37 1 -10.842 -7.228 -21.684
38 1 -9.035 -5.421 -21.684
39 1 -9.035 -7.228 -19.877
40 1 -10.842 -5.421 -19.877
41 1 -7.228 -7.228 -21.684
42 1 -5.421 -5.421 -21.684
43 1 -5.421 -7.228 -19.877
44 1 -7.228 -5.421 -19.877
45 1 -3.614 -7.228 -21.684
46 1 -1.807 -5.421 -21.684
47 1 -1.807 -7.228 -19.877
48 1 -3.614 -5.421 -19.877
49 1 -14.456 -3.614 -21.684
50 1 -12.649 -1.807 -21.684
51 1 -12.649 -3.614 -19.877
52 1 -14.456 -1.807 -19.877
53 1 -10.842 -3.614 -21.684
54 1 -9.035 -1.807 -21.684
55 1 -9.035 -3.614 -19.877
56 1 -10.842 -1.807 -19.877
57 1 -7.228 -3.614 -21.684
58 1 -5.421 -1.807 -21.684
59 1 -5.421 -3.614 -19.877
60 1 -7.228 -1.807 -19.877
61 1 -3.614 -3.614 -21.684
62 1 -1.807 -1.807 -21.684
63 1 -1.807 -3.614 -19.877
64 1 -3.614 -1.807 -19.877
65 1 -14.483 -14.6338 -17.7703
66 1 -12.4678 -12.4625 -17.8246
67 1 -12.7924 -14.6752 -16.0514
68 1 -14.4509 -12.6701 -15.8893
69 1 -11.0578 -14.3955 -17.8521
70 1 -8.92518 -12.7527 -17.943
71 1 -9.12315 -14.6181 -16.1573
72 1 -10.8219 -12.5985 -15.8547
73 1 -7.12197 -14.5666 -17.6886
74 1 -5.41198 -12.536 -17.9253
75 1 -5.57019 -14.2577 -16.0608
76 1 -7.31323 -12.6587 -15.9229
77 1 -3.79994 -14.5406 -17.9372
78 1 -1.88064 -12.6226 -18.0158
79 1 -1.89978 -14.4663 -15.9469
80 1 -3.76744 -12.5162 -15.9252
81 1 -14.3565 -10.8906 -17.7233
82 1 -12.6597 -9.10044 -17.8116
83 1 -12.5473 -10.9425 -15.8503
84 1 -14.6881 -8.9116 -15.7963
85 1 -10.7349 -10.9073 -18.1978
86 1 -9.08467 -9.09227 -17.983
87 1 -8.7091 -10.7686 -16.1674
88 1 -10.5224 -8.99826 -15.9081
89 1 -7.26868 -10.8366 -18.142
90 1 -5.46003 -9.24937 -18.0181
91 1 -5.3404 -10.7391 -15.9983
92 1 -6.94861 -8.88255 -15.969
93 1 -3.79307 -10.8286 -17.7755
94 1 -1.95712 -9.06856 -18.0278
95 1 -1.85609 -10.8276 -16.036
96 1 -3.60524 -8.87128 -15.9817
97 1 -14.5974 -7.39213 -17.9583
98 1 -12.6857 -5.49056 -18.1785
99 1 -12.7139 -7.26037 -15.9003
100 1 -14.734 -5.67428 -16.1861
101 1 -10.906 -7.67114 -17.7666
102 1 -9.03171 -5.23908 -17.9522
103 1 -8.84021 -7.03257 -16.0747
104 1 -10.9153 -5.61493 -16.1969
105 1 -7.3998 -7.2188 -18.0036
106 1 -5.6119 -5.5007 -17.8809
107 1 -5.52951 -7.37226 -16.0111
108 1 -7.18602 -5.23748 -16.1169
109 1 -3.50363 -7.03856 -17.5584
110 1 -1.83444 -5.42235 -17.9231
111 1 -1.60489 -7.40945 -15.8664
112 1 -3.76934 -5.20813 -15.8321
113 1 -14.5151 -3.63986 -18.176
114 1 -12.6432 -1.73121 -17.9276
115 1 -12.4913 -3.91183 -15.8572
116 1 -14.4337 -2.08128 -15.7906
117 1 -10.7969 -3.59506 -17.8583
118 1 -9.07468 -1.70045 -18.0542
119 1 -9.10504 -3.53829 -16.0364
120 1 -10.9724 -1.87067 -15.9252
121 1 -7.30872 -3.47243 -18.0233
122 1 -5.46434 -1.92172 -17.9247
123 1 -5.60694 -3.52683 -16.1061
124 1 -7.31602 -1.80242 -16.1313
125 1 -3.76022 -3.79106 -17.8835
126 1 -1.89333 -1.99572 -18.0947
127 1 -1.50491 -3.65255 -16.073
128 1 -3.53681 -1.80338 -16.0553
129 1 -14.4277 -14.531 -13.9242
130 1 -12.516 -12.8417 -14.0436
131 1 -12.5434 -14.5579 -12.1287
132 1 -14.5477 -12.6393 -12.3618
133 1 -10.9996 -14.6061 -14.135
134 1 -9.13936 -12.8002 -14.2307
135 1 -9.20374 -14.3332 -12.1281
136 1 -10.9953 -12.5639 -12.1287
137 1 -7.17936 -14.5783 -13.7386
138 1 -5.19569 -12.5528 -14.095
139 1 -5.2571 -14.3402 -12.1635
140 1 -7.29582 -12.6629 -12.0649
141 1 -3.68913 -14.4478 -14.1136
142 1 -1.82308 -12.5017 -14.28
143 1 -1.75905 -14.2107 -12.4782
144 1 -3.50577 -12.5122 -11.8401
145 1 -14.4597 -10.8506 -14.0856
146 1 -12.371 -9.07727 -14.1901
147 1 -12.581 -10.8205 -12.3766
148 1 -14.3937 -9.15685 -12.1884
149 1 -10.6873 -10.8754 -13.9085
150 1 -8.82399 -9.1472 -14.2441
151 1 -9.04162 -11.0468 -12.0182
152 1 -10.7507 -9.06118 -12.1551
153 1 -7.2673 -11.0971 -13.9628
154 1 -5.56045 -9.06587 -13.9571
155 1 -5.58521 -10.8367 -12.3288
156 1 -7.4097 -9.02189 -11.9969
157 1 -3.49722 -10.7598 -14.1156
158 1 -1.86903 -8.95784 -14.0759
159 1 -1.69646 -10.9133 -11.9321
160 1 -3.49833 -9.15643 -12.144
161 1 -14.4866 -7.34092 -13.7845
162 1 -12.6912 -5.62981 -14.1064
163 1 -12.7871 -6.98895 -12.2003
164 1 -14.6808 -5.53819 -12.3421
165 1 -10.6506 -7.29077 -14.2676
166 1 -8.98035 -5.36117 -14.2972
167 1 -8.92687 -7.18053 -12.1979
168 1 -10.8767 -5.53327 -12.271
169 1 -7.17673 -7.26709 -14.0602
170 1 -5.5265 -5.20976 -14.0617
171 1 -5.27663 -7.36174 -12.1058
172 1 -7.26108 -5.42057 -12.1167
173 1 -3.87839 -7.2863 -14.0778
174 1 -1.69701 -5.36827 -14.2757
175 1 -1.93721 -7.21966 -12.3132
176 1 -3.50782 -5.55064 -12.2882
177 1 -14.3135 -4.10357 -14.3196
178 1 -12.6929 -2.16616 -14.089
179 1 -12.8325 -3.84325 -12.1915
180 1 -14.4001 -1.95722 -12.2928
181 1 -10.7378 -3.69645 -14.1967
182 1 -8.99873 -1.84496 -13.9743
183 1 -9.04271 -3.49519 -12.3265
184 1 -10.8776 -1.67929 -12.1875
185 1 -7.16553 -3.41898 -13.9745
186 1 -5.2981 -1.84768 -14.0058
187 1 -5.28342 -3.53917 -12.1485
188 1 -7.22366 -1.58396 -12.5146
189 1 -3.68001 -3.70649 -14.148
190 1 -1.92201 -1.67652 -13.9594
191 1 -1.81113 -3.68667 -12.1238
192 1 -3.51675 -1.71829 -12.2012
193 1 -14.5695 -14.4733 -10.4729
194 1 -12.8522 -12.5393 -10.3686
195 1 -11.2355 -14.3474 -10.2121
196 1 -9.00639 -12.6999 -10.3865
197 1 -7.45944 -14.4179 -10.3104
198 1 -5.51041 -12.4997 -10.2547
199 1 -3.24355 -14.4079 -10.4971
200 1 -1.69175 -12.5379 -10.1902
201 1 -14.4415 -10.8156 -10.2349
202 1 -12.702 -9.03994 -10.4958
203 1 -10.8567 -10.9977 -10.3994
204 1 -9.16585 -9.23972 -10.1793
205 1 -7.46337 -10.8701 -10.2121
206 1 -5.48077 -9.23002 -10.4403
207 1 -3.54814 -10.6982 -10.2782
208 1 -1.60605 -8.89359 -10.1661
209 1 -14.686 -7.32748 -10.3625
210 1 -12.8748 -5.43982 -10.2064
211 1 -10.8817 -7.04299 -10.4346
212 1 -9.06199 -5.42692 -10.37
213 1 -7.41274 -7.16605 -10.2953
214 1 -5.38423 -5.45668 -10.4375
215 1 -3.54835 -7.42618 -10.2971
216 1 -1.76777 -5.31906 -10.1268
217 1 -14.5736 -3.73745 -10.0473
218 1 -12.6513 -1.92605 -10.2822
219 1 -10.9337 -3.87245 -10.415
220 1 -9.26113 -2.03843 -10.1552
221 1 -7.17686 -3.92654 -10.3264
222 1 -5.22773 -1.75692 -10.4298
223 1 -3.73229 -3.55808 -10.1522
224 1 -1.82743 -1.83107 -10.3606
225 1 -12.9806 -14.5512 -8.48942
226 1 -14.4598 -12.5988 -8.30713
227 1 -9.36005 -14.4522 -8.61298
228 1 -11.0454 -12.6918 -8.53333
229 1 -5.31293 -14.5258 -8.88995
230 1 -7.45148 -12.686 -8.34026
231 1 -1.93283 -14.5239 -8.26813
232 1 -3.67706 -12.6371 -8.35729
233 1 -12.5654 -10.7648 -8.46225
234 1 -14.4982 -9.07859 -8.57553
235 1 -9.1715 -10.9716 -8.57617
236 1 -10.8414 -8.9266 -8.34187
237 1 -5.40495 -10.9772 -8.49083
238 1 -7.33138 -9.17729 -8.33282
239 1 -2.03831 -10.7025 -8.45055
240 1 -3.8173 -8.84243 -8.46989
241 1 -12.7865 -7.22817 -8.30706
242 1 -14.7564 -5.40897 -8.0274
243 1 -9.19877 -7.14156 -8.37189
244 1 -10.9859 -5.52842 -8.42716
245 1 -5.49498 -7.28387 -8.61201
246 1 -7.14044 -5.4906 -8.43918
247 1 -1.84218 -7.07107 -8.3796
248 1 -3.82302 -5.3299 -8.31582
249 1 -12.7748 -3.68686 -8.48714
250 1 -14.5351 -1.78811 -8.32466
251 1 -9.04157 -3.82934 -8.42432
252 1 -10.8279 -2.09167 -8.52259
253 1 -5.49122 -3.65123 -8.32535
254 1 -7.43419 -1.69577 -8.69732
255 1 -1.68239 -3.63294 -8.39262
256 1 -3.57949 -1.70378 -8.54844
257 1 -14.7553 -14.5451 -6.392
258 1 -12.5799 -12.617 -6.74219
259 1 -13.0298 -14.8528 -4.79012
260 1 -14.2461 -12.6889 -4.84182
261 1 -10.9444 -14.477 -6.60248
262 1 -9.41213 -12.6643 -6.46224
263 1 -9.11396 -14.4951 -4.54531
264 1 -11.0552 -12.811 -4.77138
265 1 -7.43213 -14.2374 -6.53441
266 1 -5.57817 -12.7497 -6.76351
267 1 -5.38834 -14.2088 -4.77626
268 1 -7.45219 -12.5182 -4.61417
269 1 -3.69275 -14.5566 -6.64432
270 1 -1.81267 -12.5999 -6.86165
271 1 -1.68021 -14.4622 -4.75835
272 1 -3.49528 -12.6953 -4.96916
273 1 -14.3931 -10.8051 -6.6637
274 1 -12.6485 -8.86402 -6.53671
275 1 -12.6916 -10.9009 -4.68803
276 1 -14.3341 -9.10725 -4.6052
277 1 -10.9215 -10.7521 -6.405
278 1 -9.2563 -9.11856 -6.43932
279 1 -9.27602 -10.8554 -4.589
280 1 -10.8706 -8.90155 -4.61307
281 1 -7.42389 -10.8884 -6.54045
282 1 -5.673 -8.93493 -6.41284
283 1 -5.62604 -10.8143 -4.75457
284 1 -7.36619 -8.99849 -4.5609
285 1 -3.83473 -10.6785 -6.40268
286 1 -2.08335 -9.02355 -6.50093
287 1 -1.74938 -10.623 -4.85542
288 1 -3.55381 -8.85796 -4.51358
289 1 -14.4986 -7.20302 -6.43383
290 1 -12.6799 -5.45915 -6.29651
291 1 -12.5654 -7.14769 -4.60095
292 1 -14.4049 -5.30746 -4.64076
293 1 -10.7571 -7.20704 -6.48864
294 1 -8.89247 -5.49245 -6.61379
295 1 -9.2875 -7.19694 -4.60059
296 1 -10.738 -5.20695 -4.75722
297 1 -7.63011 -7.41665 -6.47032
298 1 -5.66914 -5.45776 -6.39696
299 1 -5.52537 -7.29712 -4.54292
300 1 -7.14254 -5.37381 -4.72895
301 1 -3.61799 -7.14393 -6.54044
302 1 -1.4661 -5.36175 -6.61595
303 1 -1.80592 -7.20081 -4.74956
304 1 -3.54575 -5.16791 -4.94716
305 1 -14.6703 -3.7171 -6.62709
306 1 -12.7019 -2.03851 -6.61635
307 1 -12.7396 -3.65803 -4.60847
308 1 -14.5282 -1.85498 -4.77234
309 1 -10.8842 -3.63101 -6.64487
310 1 -9.20794 -2.00775 -6.40138
311 1 -8.99422 -3.75192 -4.66721
312 1 -11.0064 -1.86369 -4.46386
313 1 -7.29429 -3.6613 -6.54998
314 1 -5.56385 -1.84276 -6.66421
315 1 -5.33863 -3.41089 -4.80367
316 1 -7.37314 -2.06597 -4.53032
317 1 -3.70501 -3.56457 -6.88111
318 1 -1.83152 -1.74953 -6.83626
319 1 -1.67138 -3.59528 -4.74136
320 1 -3.65989 -1.76908 -4.65126
321 1 -14.456 -14.3656 -2.83939
322 1 -12.5225 -12.473 -2.73565
323 1 -12.6059 -14.4931 -0.986616
324 1 -14.2816 -12.528 -0.751083
325 1 -11.1495 -14.4676 -2.93619
326 1 -9.01848 -12.7314 -2.7263
327 1 -8.83431 -14.5694 -1.25151
328 1 -10.7926 -12.5336 -0.959094
329 1 -6.95082 -14.1604 -2.7932
330 1 -5.21522 -12.4666 -3.02694
331 1 -5.21746 -14.2872 -1.18763
332 1 -7.36047 -12.4305 -1.07434
333 1 -3.4588 -14.5917 -3.00349
334 1 -1.65794 -12.608 -2.93174
335 1 -1.80459 -14.3232 -1.07731
336 1 -3.42373 -12.4073 -1.01683
337 1 -14.0304 -10.7983 -2.73683
338 1 -12.5849 -8.85658 -2.90437
339 1 -12.3173 -10.6912 -0.918689
340 1 -14.2178 -8.97509 -1.00945
341 1 -10.9984 -10.6603 -2.91733
342 1 -8.94644 -9.02945 -2.88052
343 1 -9.32782 -10.5927 -1.06093
344 1 -10.7831 -8.67615 -0.859423
345 1 -7.2547 -10.7324 -2.95629
346 1 -5.32512 -8.97617 -2.65949
347 1 -5.21435 -10.7871 -0.978189
348 1 -7.17245 -8.93936 -0.90937
349 1 -3.29862 -10.6771 -2.99946
350 1 -1.64523 -8.68142 -2.81174
351 1 -1.8571 -10.4759 -0.962822
352 1 -3.31531 -8.70915 -0.702317
353 1 -14.3715 -7.26876 -2.79258
354 1 -12.675 -5.3158 -2.72407
355 1 -12.5385 -7.04778 -0.803871
356 1 -14.4814 -5.59986 -0.970241
357 1 -10.8758 -7.0821 -2.77293
358 1 -8.93471 -5.41158 -2.74628
359 1 -8.97883 -7.10105 -0.931431
360 1 -10.7512 -5.25331 -0.997563
361 1 -7.12273 -7.20207 -2.80971
362 1 -5.06495 -5.36488 -2.76789
363 1 -5.2235 -6.96437 -1.13668
364 1 -7.2034 -5.31664 -0.977346
365 1 -3.62458 -7.3041 -2.80322
366 1 -2.06556 -5.43189 -3.05988
367 1 -1.64043 -7.06044 -0.859433
368 1 -3.32429 -5.43095 -0.820482
369 1 -14.4318 -3.7122 -2.76859
370 1 -12.608 -1.92942 -2.78662
371 1 -12.6909 -3.66571 -1.11558
372 1 -14.6536 -1.74439 -0.991155
373 1 -10.9505 -3.83195 -2.89713
374 1 -9.26592 -1.79192 -2.75929
375 1 -8.93686 -3.68513 -1.08644
376 1 -10.8751 -1.7762 -1.02542
377 1 -7.17091 -3.70354 -2.88635
378 1 -5.37512 -2.0896 -2.80934
379 1 -5.25806 -3.67017 -0.931558
380 1 -7.3317 -1.82125 -1.2178
381 1 -3.47229 -3.52744 -2.93622
382 1 -1.89057 -1.84657 -2.76442
383 1 -1.74737 -3.62161 -1.06405
384 1 -3.63549 -1.90391 -1.01921
385 1 -14.1232 -14.3328 0.879787
386 1 -12.3755 -12.6382 0.90172
387 1 -10.5001 -14.4502 0.48577
388 1 -8.72044 -12.6162 0.793497
389 1 -7.04112 -14.5207 0.522775
390 1 -5.44267 -12.5323 1.09641
391 1 -3.7129 -14.465 0.518211
392 1 -1.73971 -12.5091 0.55791
393 1 -14.8526 -10.8271 1.11634
394 1 -12.4132 -9.06731 0.938858
395 1 -10.5225 -10.9497 1.18141
396 1 -9.01703 -9.09808 0.902882
397 1 -7.25419 -10.7993 0.949135
398 1 -5.25607 -8.81831 0.908323
399 1 -3.50522 -10.7546 0.823883
400 1 -1.52521 -9.06173 1.06729
401 1 -14.3696 -7.42676 0.855657
402 1 -12.3124 -5.26618 0.905847
403 1 -10.7399 -7.22284 0.778366
404 1 -8.99603 -5.48879 0.68364
405 1 -7.22536 -7.20616 0.878919
406 1 -5.40163 -5.41471 1.02421
407 1 -3.61604 -7.05373 0.860709
408 1 -1.60467 -5.44687 0.967455
409 1 -14.6454 -3.54952 0.606309
410 1 -12.7723 -1.90122 0.726562
411 1 -10.525 -3.45811 0.76669
412 1 -8.97473 -1.62799 0.771457
413 1 -7.50231 -3.52852 1.01464
414 1 -5.38495 -1.95589 0.746687
415 1 -3.60309 -3.57682 1.02323
416 1 -1.90754 -1.95205 0.615739
417 1 -14.456 0 -21.684
418 1 -12.649 1.807 -21.684
419 1 -12.649 0 -19.877
420 1 -14.456 1.807 -19.877
421 1 -10.842 0 -21.684
422 1 -9.035 1.807 -21.684
423 1 -9.035 0 -19.877
424 1 -10.842 1.807 -19.877
425 1 -7.228 0 -21.684
426 1 -5.421 1.807 -21.684
427 1 -5.421 0 -19.877
428 1 -7.228 1.807 -19.877
429 1 -3.614 0 -21.684
430 1 -1.807 1.807 -21.684
431 1 -1.807 0 -19.877
432 1 -3.614 1.807 -19.877
433 1 -14.456 3.614 -21.684
434 1 -12.649 5.421 -21.684
435 1 -12.649 3.614 -19.877
436 1 -14.456 5.421 -19.877
437 1 -10.842 3.614 -21.684
438 1 -9.035 5.421 -21.684
439 1 -9.035 3.614 -19.877
440 1 -10.842 5.421 -19.877
441 1 -7.228 3.614 -21.684
442 1 -5.421 5.421 -21.684
443 1 -5.421 3.614 -19.877
444 1 -7.228 5.421 -19.877
445 1 -3.614 3.614 -21.684
446 1 -1.807 5.421 -21.684
447 1 -1.807 3.614 -19.877
448 1 -3.614 5.421 -19.877
449 1 -14.456 7.228 -21.684
450 1 -12.649 9.035 -21.684
451 1 -12.649 7.228 -19.877
452 1 -14.456 9.035 -19.877
453 1 -10.842 7.228 -21.684
454 1 -9.035 9.035 -21.684
455 1 -9.035 7.228 -19.877
456 1 -10.842 9.035 -19.877
457 1 -7.228 7.228 -21.684
458 1 -5.421 9.035 -21.684
459 1 -5.421 7.228 -19.877
460 1 -7.228 9.035 -19.877
461 1 -3.614 7.228 -21.684
462 1 -1.807 9.035 -21.684
463 1 -1.807 7.228 -19.877
464 1 -3.614 9.035 -19.877
465 1 -14.456 10.842 -21.684
466 1 -12.649 12.649 -21.684
467 1 -12.649 10.842 -19.877
468 1 -14.456 12.649 -19.877
469 1 -10.842 10.842 -21.684
470 1 -9.035 12.649 -21.684
471 1 -9.035 10.842 -19.877
472 1 -10.842 12.649 -19.877
473 1 -7.228 10.842 -21.684
474 1 -5.421 12.649 -21.684
475 1 -5.421 10.842 -19.877
476 1 -7.228 12.649 -19.877
477 1 -3.614 10.842 -21.684
478 1 -1.807 12.649 -21.684
479 1 -1.807 10.842 -19.877
480 1 -3.614 12.649 -19.877
481 1 -14.5492 -0.113055 -17.9947
482 1 -12.5833 1.54895 -17.9293
483 1 -12.5991 -0.1373 -15.9735
484 1 -14.5378 1.6457 -16.0378
485 1 -10.745 -0.0531069 -17.6984
486 1 -9.12742 1.91312 -17.7594
487 1 -8.96785 0.031847 -16.0543
488 1 -10.9452 1.75372 -15.7719
489 1 -7.23757 0.0471412 -17.9056
490 1 -5.47846 1.86667 -17.995
491 1 -5.50298 -0.0310374 -15.9271
492 1 -7.20269 1.93382 -16.1078
493 1 -3.76115 0.0331315 -18.1173
494 1 -1.81664 1.86441 -17.9607
495 1 -1.75845 0.0579977 -16.0222
496 1 -3.80166 1.79551 -15.8985
497 1 -14.496 3.43778 -18.0059
498 1 -12.6764 5.42187 -18.2202
499 1 -12.5794 3.69744 -16.0854
500 1 -14.6089 5.36118 -15.8735
501 1 -11.1225 3.54371 -17.9212
502 1 -9.23472 5.58809 -18.1658
503 1 -9.18046 3.48536 -15.9797
504 1 -10.8923 5.26017 -16.2371
505 1 -7.26693 3.70517 -17.8961
506 1 -5.22183 5.26918 -18.0647
507 1 -5.39848 3.66788 -16.1084
508 1 -7.37532 5.49411 -16.1292
509 1 -3.64063 3.46511 -17.8919
510 1 -1.90399 5.3144 -17.9957
511 1 -1.82744 3.54689 -16.2145
512 1 -3.45725 5.24575 -16.0531
513 1 -14.5247 7.19018 -17.8109
514 1 -12.6411 8.94477 -17.6958
515 1 -12.8668 7.25862 -15.7256
516 1 -14.5221 9.2081 -15.7565
517 1 -10.7976 7.28307 -17.861
518 1 -9.04433 9.05954 -17.9647
519 1 -9.25439 7.34906 -15.8789
520 1 -11.0178 9.01682 -16.0775
521 1 -7.2769 7.07449 -17.9013
522 1 -5.56495 9.0701 -17.8383
523 1 -5.22143 7.15976 -16.2484
524 1 -7.26251 8.70548 -15.858
525 1 -3.55091 7.36184 -18.0843
526 1 -1.74962 9.06462 -18.1816
527 1 -1.56964 6.99941 -15.9609
528 1 -3.43174 9.17628 -16.2131
529 1 -14.2472 10.6735 -17.8267
530 1 -12.6297 12.5639 -18.0229
531 1 -12.5188 10.7653 -15.9171
532 1 -14.4946 12.4627 -15.749
533 1 -10.9467 10.9452 -17.9413
534 1 -8.94278 12.4971 -17.8924
535 1 -9.00559 10.6921 -15.7838
536 1 -10.7675 12.5691 -15.9583
537 1 -7.2099 10.6031 -17.7554
538 1 -5.51473 12.6024 -17.8328
539 1 -5.49664 10.836 -15.906
540 1 -7.18028 12.4707 -15.8379
541 1 -3.71829 10.8424 -17.9494
542 1 -1.91181 12.6979 -17.9304
543 1 -1.97066 11.1305 -15.9922
544 1 -3.85197 12.7469 -15.7571
545 1 -14.4271 -0.297293 -14.2985
546 1 -12.8779 1.71169 -14.0772
547 1 -12.5982 -0.0226642 -12.1693
548 1 -14.6776 1.54454 -12.3659
549 1 -10.7478 -0.024989 -14.1147
550 1 -9.03273 1.70415 -14.3656
551 1 -9.0486 0.0455372 -12.3929
552 1 -10.8378 1.62665 -12.3994
553 1 -7.41646 0.102379 -14.2864
554 1 -5.53713 1.66939 -14.1688
555 1 -5.27656 0.0656239 -11.9868
556 1 -7.57228 1.83306 -12.3704
557 1 -3.69735 0.15689 -13.9809
558 1 -2.00319 1.80602 -14.052
559 1 -1.81048 0.0893386 -12.0353
560 1 -3.70641 1.91457 -12.3247
561 1 -14.7683 3.42366 -14.4285
562 1 -12.7321 5.18446 -13.9873
563 1 -12.7588 3.36441 -12.2871
564 1 -14.5336 5.19653 -12.4347
565 1 -10.8876 3.3956 -14.0655
566 1 -9.20625 5.43278 -14.2215
567 1 -9.1668 3.6668 -12.4215
568 1 -11.1282 5.25563 -12.2066
569 1 -7.1495 3.66123 -14.2353
570 1 -5.35176 5.41793 -14.4078
571 1 -5.4493 3.53907 -12.3938
572 1 -7.25792 5.36285 -12.137
573 1 -3.60761 3.38667 -14.2701
574 1 -1.60517 5.14137 -14.2754
575 1 -1.75386 3.35134 -12.0127
576 1 -3.33921 5.33192 -12.3559
577 1 -14.4332 7.02429 -14.1017
578 1 -12.6101 8.93261 -13.97
579 1 -12.7325 7.12969 -12.2323
580 1 -14.5441 8.75149 -12.2263
581 1 -11.0766 6.99816 -13.9567
582 1 -9.10432 8.86707 -14.0032
583 1 -9.1887 7.18707 -12.0457
584 1 -10.8191 8.80423 -12.0572
585 1 -7.26628 7.03748 -13.9749
586 1 -5.5437 9.05801 -14.1002
587 1 -5.19992 6.87311 -12.2855
588 1 -7.11823 8.76063 -12.0392
589 1 -3.52868 7.35626 -14.2549
590 1 -1.78667 9.06543 -14.0635
591 1 -1.80666 7.22933 -11.9697
592 1 -3.64646 8.85859 -12.195
593 1 -14.5064 10.8153 -13.9843
594 1 -12.4759 12.412 -13.882
595 1 -12.5551 10.8523 -12.0299
596 1 -14.6635 12.6532 -12.1666
597 1 -10.9149 10.6417 -13.8813
598 1 -9.1593 12.7901 -13.9574
599 1 -9.14978 10.9808 -12.0406
600 1 -10.7322 12.694 -12.021
601 1 -7.49104 10.7688 -13.5492
602 1 -5.52319 12.2722 -13.9353
603 1 -5.32732 10.5433 -11.9332
604 1 -7.26214 12.629 -12.0765
605 1 -3.62446 10.8435 -14.0259
606 1 -1.74445 12.8085 -14.2774
607 1 -1.72175 10.6999 -12.027
608 1 -3.50389 12.6105 -12.2768
609 1 -14.3451 -0.252857 -10.2511
610 1 -12.7457 1.60271 -10.5565
611 1 -10.8434 -0.0544791 -10.4927
612 1 -9.07305 1.73349 -10.3897
613 1 -7.33797 -0.0196722 -10.4245
614 1 -5.57867 1.77651 -10.5835
615 1 -3.48268 0.236896 -10.3351
616 1 -1.81623 1.83785 -9.97333
617 1 -14.4504 3.21353 -10.2283
618 1 -12.659 5.42035 -10.3102
619 1 -10.8392 3.22638 -10.561
620 1 -9.15971 5.31285 -10.051
621 1 -7.43681 3.394 -10.6321
622 1 -5.58983 5.19243 -10.1764
623 1 -3.58607 3.48647 -10.2708
624 1 -2.0164 5.26133 -10.327
625 1 -14.517 6.94307 -10.4492
626 1 -12.5952 8.80096 -10.5009
627 1 -10.8438 7.15087 -10.1566
628 1 -8.89706 9.12061 -10.1673
629 1 -7.05361 7.1293 -10.4985
630 1 -5.43626 8.89031 -10.1433
631 1 -3.63823 7.19204 -10.1938
632 1 -1.68581 9.09426 -10.1463
633 1 -14.511 10.79 -10.3819
634 1 -12.8206 12.4704 -10.3462
635 1 -10.7808 10.7439 -10.1762
636 1 -9.19335 12.6162 -10.1327
637 1 -7.27849 10.8917 -10.3808
638 1 -4.93734 12.4354 -10.3778
639 1 -3.39923 10.7682 -10.3408
640 1 -1.74066 12.4909 -10.3841
641 1 -12.6014 -0.108695 -8.63513
642 1 -14.5307 1.6126 -8.21651
643 1 -9.30071 -0.225933 -8.34842
644 1 -10.7861 1.78194 -8.49647
645 1 -5.41929 -0.154455 -8.67174
646 1 -7.4425 1.81056 -8.45601
647 1 -1.63679 -0.1509 -8.5302
648 1 -3.86463 1.77457 -8.44642
649 1 -12.5785 3.31572 -8.62442
650 1 -14.5118 5.43624 -8.73741
651 1 -9.02886 3.50749 -8.39276
652 1 -10.939 5.20222 -8.55249
653 1 -5.59213 3.43006 -8.4506
654 1 -7.33348 5.24712 -8.41669
655 1 -1.90557 3.82572 -8.5063
656 1 -3.95475 5.27936 -8.41474
657 1 -12.6862 7.32496 -8.56997
658 1 -14.4223 8.91221 -8.60698
659 1 -9.13778 7.31002 -8.32378
660 1 -10.9079 9.03206 -8.49745
661 1 -5.48127 7.30235 -8.43686
662 1 -7.24824 9.17902 -8.39016
663 1 -2.10091 7.16856 -8.49449
664 1 -3.65083 9.03508 -8.61571
665 1 -12.6837 10.6186 -8.57917
666 1 -14.5018 12.4285 -8.63165
667 1 -9.2781 11.1521 -8.28624
668 1 -11.2697 12.6144 -8.48543
669 1 -5.25857 10.9026 -8.54858
670 1 -7.23062 12.7427 -8.36171
671 1 -1.88833 10.9031 -8.33642
672 1 -3.74547 12.653 -8.33516
673 1 -14.4309 -0.206429 -6.51947
674 1 -12.5939 1.79341 -6.42975
675 1 -12.5682 -0.266713 -4.84423
676 1 -14.6727 1.72669 -4.69104
677 1 -10.994 -0.320878 -6.58787
678 1 -9.2162 1.54737 -6.74124
679 1 -9.12051 -0.12299 -4.69878
680 1 -10.8907 1.67175 -4.8261
681 1 -7.35277 -0.155717 -6.66126
682 1 -5.55545 1.69419 -6.57406
683 1 -5.54009 -0.140079 -4.98774
684 1 -7.25279 1.64274 -4.90013
685 1 -3.81099 -0.0956483 -6.7033
686 1 -1.73338 1.70124 -6.86235
687 1 -1.90284 -0.145049 -5.00002
688 1 -3.77631 1.38016 -4.67327
689 1 -14.3095 3.50057 -6.74922
690 1 -12.5908 5.52889 -6.62664
691 1 -12.8035 3.52899 -4.63171
692 1 -14.3248 5.2949 -4.97294
693 1 -10.9786 3.43994 -6.41326
694 1 -9.05598 5.26685 -6.47689
695 1 -9.0492 3.42533 -4.74308
696 1 -10.6514 5.23632 -4.73458
697 1 -7.23613 3.49776 -6.59051
698 1 -5.50072 5.27042 -6.63473
699 1 -5.31148 3.73888 -4.72684
700 1 -7.20481 5.34212 -4.75278
701 1 -3.75956 3.5551 -6.69633
702 1 -1.84369 5.34337 -6.60569
703 1 -1.99795 3.50288 -4.90087
704 1 -3.49447 5.33609 -4.85909
705 1 -14.4221 7.10818 -6.52932
706 1 -12.6734 8.98915 -6.52555
707 1 -12.3749 7.09174 -4.61461
708 1 -14.1404 8.83716 -4.5787
709 1 -10.8548 7.23357 -6.69036
710 1 -9.00378 9.07384 -6.56171
711 1 -9.01714 7.02439 -4.66276
712 1 -10.6007 9.07413 -4.81085
713 1 -7.35376 6.97543 -6.7862
714 1 -5.32005 9.02589 -6.61634
715 1 -5.23265 7.07893 -4.95706
716 1 -7.17471 8.68204 -4.80167
717 1 -3.35046 7.3062 -6.53508
718 1 -1.89799 8.9282 -6.76714
719 1 -1.84561 7.11555 -4.76059
720 1 -3.60947 9.0959 -4.79575
721 1 -14.3836 10.5953 -6.66523
722 1 -12.8695 12.4959 -6.63856
723 1 -12.8057 10.9053 -4.66104
724 1 -14.664 12.5274 -4.60874
725 1 -11.0323 11.0809 -6.54534
726 1 -9.11474 12.7191 -6.4708
727 1 -8.82186 10.9056 -4.6489
728 1 -11.0799 12.8648 -4.64189
729 1 -7.03313 10.7752 -6.4896
730 1 -5.57677 12.8835 -6.45065
731 1 -5.6049 10.6403 -4.51252
732 1 -7.15222 12.971 -4.50312
733 1 -3.87784 11.0027 -6.4225
734 1 -1.74031 12.6084 -6.60094
735 1 -1.74488 10.8071 -4.87415
736 1 -3.64673 12.5362 -4.60671
737 1 -14.4292 -0.226293 -2.89085
738 1 -13.0727 1.83285 -2.62688
739 1 -12.6535 0.00856383 -1.05797
740 1 -14.5858 2.02228 -0.769668
741 1 -11.0037 0.167271 -2.84035
742 1 -8.96105 1.70181 -2.93473
743 1 -8.92118 0.176517 -0.802546
744 1 -10.9686 1.78861 -0.884121
745 1 -7.15684 -0.107401 -2.87039
746 1 -5.50299 1.67104 -2.78898
747 1 -5.60954 -0.065205 -1.14426
748 1 -7.16347 2.00938 -1.10042
749 1 -3.73858 -0.126626 -2.74396
750 1 -1.96494 1.63925 -3.05791
751 1 -1.6544 -0.0176816 -1.08072
752 1 -3.46606 1.76566 -1.01661
753 1 -14.6085 3.65022 -2.81573
754 1 -12.4944 5.24545 -2.64529
755 1 -12.5515 3.60645 -1.06033
756 1 -14.2045 5.23841 -0.754341
757 1 -10.9822 3.33679 -2.95446
758 1 -8.96275 5.3227 -2.7698
759 1 -9.07923 3.45241 -1.16809
760 1 -10.6795 5.03547 -0.775925
761 1 -7.05877 3.45049 -3.09377
762 1 -5.301 5.29048 -2.83714
763 1 -5.3142 3.40023 -0.961216
764 1 -7.13765 5.18434 -1.19723
765 1 -3.60178 3.54773 -2.81972
766 1 -1.94646 5.4616 -2.89225
767 1 -1.90519 3.4501 -1.00194
768 1 -3.59099 5.28334 -0.710303
769 1 -14.0801 7.18492 -2.47267
770 1 -12.2133 9.09841 -2.93153
771 1 -12.2694 7.04832 -0.818569
772 1 -14.3387 9.03669 -0.892011
773 1 -10.9017 6.94471 -2.70788
774 1 -9.19842 8.89166 -2.72317
775 1 -8.95936 6.86058 -1.01575
776 1 -10.8983 9.08691 -0.83159
777 1 -7.15869 7.0269 -2.96545
778 1 -5.40621 8.97369 -3.01089
779 1 -5.43691 7.08606 -1.14951
780 1 -7.35982 8.98918 -1.14308
781 1 -3.43843 7.1978 -2.70121
782 1 -2.07665 9.03096 -2.75925
783 1 -1.96001 7.23321 -0.648461
784 1 -3.69547 9.00641 -0.955887
785 1 -14.3387 10.6343 -2.7254
786 1 -12.9616 12.4645 -2.89343
787 1 -12.6528 10.7505 -0.832827
788 1 -14.2661 12.5844 -0.946386
789 1 -10.6832 10.9646 -2.92971
790 1 -8.88865 12.6535 -2.91033
791 1 -9.12776 10.8186 -1.12255
792 1 -10.9318 12.4641 -1.1258
793 1 -7.24392 10.7134 -2.9115
794 1 -5.46916 12.7945 -2.87344
795 1 -5.41603 10.8326 -1.07687
796 1 -7.13858 12.6399 -1.21868
797 1 -3.67516 10.9368 -3.00739
798 1 -1.70429 12.8384 -2.90552
799 1 -1.96885 10.6737 -1.11313
800 1 -3.56227 12.4849 -1.2111
801 1 -14.5209 -0.0799596 0.575087
802 1 -12.7343 1.59806 0.839015
803 1 -10.9984 -0.160779 0.902454
804 1 -8.96829 1.91299 0.755181
805 1 -7.4069 0.141214 0.936654
806 1 -5.23758 1.43214 0.94128
807 1 -3.5992 -0.17859 0.685494
808 1 -1.70341 1.71935 0.782722
809 1 -14.4435 3.62136 1.0089
810 1 -12.4786 5.34247 1.0853
811 1 -10.9532 3.26492 0.924482
812 1 -8.93946 5.03088 0.69073
813 1 -7.08098 3.25862 0.769281
814 1 -5.53031 5.51217 0.909448
815 1 -3.29542 3.28936 0.854099
816 1 -1.75043 5.2993 1.18751
817 1 -14.2617 7.33256 1.03682
818 1 -12.2681 8.81288 0.99563
819 1 -10.3576 7.23197 0.874926
820 1 -9.00514 9.11938 0.828048
821 1 -7.32211 7.15843 0.912478
822 1 -5.71725 8.85777 0.589455
823 1 -3.60777 7.37391 1.06067
824 1 -1.88266 9.15436 0.923656
825 1 -14.4313 10.6608 0.835067
826 1 -12.091 12.6515 0.918143
827 1 -10.6364 10.7868 0.932857
828 1 -8.95252 12.5216 0.647939
829 1 -7.30174 10.7138 0.49855
830 1 -5.2932 12.6066 0.757609
831 1 -3.58215 10.8914 0.778001
832 1 -1.8995 12.5526 0.791263
833 1 0 -14.456 -21.684
834 1 1.807 -12.649 -21.684
835 1 1.807 -14.456 -19.877
836 1 0 -12.649 -19.877
837 1 3.614 -14.456 -21.684
838 1 5.421 -12.649 -21.684
839 1 5.421 -14.456 -19.877
840 1 3.614 -12.649 -19.877
841 1 7.228 -14.456 -21.684
842 1 9.035 -12.649 -21.684
843 1 9.035 -14.456 -19.877
844 1 7.228 -12.649 -19.877
845 1 10.842 -14.456 -21.684
846 1 12.649 -12.649 -21.684
847 1 12.649 -14.456 -19.877
848 1 10.842 -12.649 -19.877
849 1 0 -10.842 -21.684
850 1 1.807 -9.035 -21.684
851 1 1.807 -10.842 -19.877
852 1 0 -9.035 -19.877
853 1 3.614 -10.842 -21.684
854 1 5.421 -9.035 -21.684
855 1 5.421 -10.842 -19.877
856 1 3.614 -9.035 -19.877
857 1 7.228 -10.842 -21.684
858 1 9.035 -9.035 -21.684
859 1 9.035 -10.842 -19.877
860 1 7.228 -9.035 -19.877
861 1 10.842 -10.842 -21.684
862 1 12.649 -9.035 -21.684
863 1 12.649 -10.842 -19.877
864 1 10.842 -9.035 -19.877
865 1 0 -7.228 -21.684
866 1 1.807 -5.421 -21.684
867 1 1.807 -7.228 -19.877
868 1 0 -5.421 -19.877
869 1 3.614 -7.228 -21.684
870 1 5.421 -5.421 -21.684
871 1 5.421 -7.228 -19.877
872 1 3.614 -5.421 -19.877
873 1 7.228 -7.228 -21.684
874 1 9.035 -5.421 -21.684
875 1 9.035 -7.228 -19.877
876 1 7.228 -5.421 -19.877
877 1 10.842 -7.228 -21.684
878 1 12.649 -5.421 -21.684
879 1 12.649 -7.228 -19.877
880 1 10.842 -5.421 -19.877
881 1 0 -3.614 -21.684
882 1 1.807 -1.807 -21.684
883 1 1.807 -3.614 -19.877
884 1 0 -1.807 -19.877
885 1 3.614 -3.614 -21.684
886 1 5.421 -1.807 -21.684
887 1 5.421 -3.614 -19.877
888 1 3.614 -1.807 -19.877
889 1 7.228 -3.614 -21.684
890 1 9.035 -1.807 -21.684
891 1 9.035 -3.614 -19.877
892 1 7.228 -1.807 -19.877
893 1 10.842 -3.614 -21.684
894 1 12.649 -1.807 -21.684
895 1 12.649 -3.614 -19.877
896 1 10.842 -1.807 -19.877
897 1 -0.20487 -14.7131 -18.1279
898 1 1.84223 -12.6866 -17.9309
899 1 2.01414 -14.7778 -16.1081
900 1 0.0904363 -12.5715 -16.1808
901 1 3.54701 -14.3062 -17.8637
902 1 5.39929 -12.5618 -17.9941
903 1 5.38413 -14.4737 -15.9238
904 1 3.4673 -12.6171 -15.721
905 1 7.13223 -14.3502 -17.7429
906 1 9.30013 -12.7115 -17.8174
907 1 8.98992 -14.3779 -15.8936
908 1 7.10856 -12.307 -16.1443
909 1 10.8918 -14.6325 -18.0634
910 1 12.6648 -12.9016 -17.7867
911 1 12.9675 -14.524 -15.9838
912 1 10.8179 -12.4921 -15.8264
913 1 -0.0758768 -10.7955 -18.099
914 1 1.74883 -9.21727 -17.9244
915 1 2.01065 -10.7883 -16.0615
916 1 -0.0392757 -9.26764 -15.9179
917 1 3.69286 -10.6363 -18.0797
918 1 5.44318 -8.99681 -17.9769
919 1 5.39495 -10.6226 -15.7821
920 1 3.80189 -8.93153 -15.8052
921 1 7.54897 -10.96 -18.0321
922 1 8.95186 -8.99839 -17.9748
923 1 9.09924 -10.5851 -16.0301
924 1 7.21815 -8.96699 -16.1467
925 1 10.7638 -10.9511 -17.9074
926 1 12.5113 -9.04828 -18.0802
927 1 12.7654 -10.9495 -16.0871
928 1 11.0214 -9.00043 -16.2402
929 1 -0.0639882 -7.17784 -17.9407
930 1 1.71204 -5.5552 -17.8944
931 1 1.87476 -7.35499 -15.876
932 1 0.189522 -5.30599 -15.9934
933 1 3.52284 -7.23773 -18.0918
934 1 5.28927 -5.61662 -17.9467
935 1 5.29305 -7.22477 -15.8767
936 1 3.61275 -5.52651 -15.8514
937 1 7.34785 -7.00745 -17.7719
938 1 9.06591 -5.229 -18.0979
939 1 9.20469 -7.37017 -16.0088
940 1 7.18313 -5.43732 -16.0702
941 1 10.6983 -6.97537 -18.0922
942 1 12.6802 -5.19248 -18.0047
943 1 12.317 -7.33242 -16.2941
944 1 10.9643 -5.37017 -15.9529
945 1 0.125413 -3.7849 -17.939
946 1 1.8155 -1.71361 -17.9542
947 1 1.72644 -3.3633 -16.1235
948 1 -0.0439701 -1.58873 -15.7997
949 1 3.47328 -3.84958 -18.0927
950 1 5.48833 -1.82161 -17.827
951 1 5.48779 -3.86795 -16.0456