ITEM: TIMESTEP
1000
ITEM: NUMBER OF ATOMS
1665
ITEM: BOX BOUNDS pp pp ss
-1.4456000000000000e+01 1.4456000000000000e+01
-1.4456000000000000e+01 1.4456000000000000e+01
-2.1686529799999999e+01 2.6495513941056879e+00
ITEM: ATOMS id type xu yu zu
1 1 -14.456 -14.456 -21.684
2 1 -12.649 -12.649 -21.684
3 1 -12.649 -14.456 -19.877
4 1 -14.456 -12.649 -19.877
5 1 -10.842 -14.456 -21.684
6 1 -9.035 -12.649 -21.684
7 1 -9.035 -14.456 -19.877
8 1 -10.842 -12.649 -19.877
9 1 -7.228 -14.456 -21.684
10 1 -5.421 -12.649 -21.684
11 1 -5.421 -14.456 -19.877
12 1 -7.228 -12.649 -19.877
13 1 -3.614 -14.456 -21.684
14 1 -1.807 -12.649 -21.684
15 1 -1.807 -14.456 -19.877
16 1 -3.614 -12.649 -19.877
17 1 -14.456 -10.842 -21.684
18 1 -12.649 -9.035 -21.684
19 1 -12.649 -10.842 -19.877
20 1 -14.456 -9.035 -19.877
21 1 -10.842 -10.842 -21.684
22 1 -9.035 -9.035 -21.684
23 1 -9.035 -10.842 -19.877
24 1 -10.842 -9.035 -19.877
25 1 -7.228 -10.842 -21.684
26 1 -5.421 -9.035 -21.684
27 1 -5.421 -10.842 -19.877
28 1 -7.228 -9.035 -19.877
29 1 -3.614 -10.842 -21.684
30 1 -1.807 -9.035 -21.684
31 1 -1.807 -10.842 -19.877
32 1 -3.614 -9.035 -19.877
33 1 -14.456 -7.228 -21.684
34 1 -12.649 -5.421 -21.684
35 1 -12.649 -7.228 -19.877
36 1 -14.456 -5.421 -19.877
37 1 -10.842 -7.228 -21.684
38 1 -9.035 -5.421 -21.684
39 1 -9.035 -7.228 -19.877
40 1 -10.842 -5.421 -19.877
41 1 -7.228 -7.228 -21.684
42 1 -5.421 -5.421 -21.684
43 1 -5.421 -7.228 -19.877
44 1 -7.228 -5.421 -19.877
45 1 -3.614 -7.228 -21.684
46 1 -1.807 -5.421 -21.684
47 1 -1.807 -7.228 -19.877
48 1 -3.614 -5.421 -19.877
49 1 -14.456 -3.614 -21.684
50 1 -12.649 -1.807 -21.684
51 1 -12.649 -3.614 -19.877
52 1 -14.456 -1.807 -19.877
53 1 -10.842 -3.614 -21.684
54 1 -9.035 -1.807 -21.684
55 1 -9.035 -3.614 -19.877
56 1 -10.842 -1.807 -19.877
57 1 -7.228 -3.614 -21.684
58 1 -5.421 -1.807 -21.684
59 1 -5.421 -3.614 -19.877
60 1 -7.228 -1.807 -19.877
61 1 -3.614 -3.614 -21.684
62 1 -1.807 -1.807 -21.684
63 1 -1.807 -3.614 -19.877
64 1 -3.614 -1.807 -19.877
65 1 -14.1457 -14.3913 -17.9816
66 1 -12.5283 -12.545 -17.898
67 1 -12.4275 -14.5497 -16.2282
68 1 -14.5958 -12.6163 -16.1787
69 1 -10.9822 -14.5408 -18.1001
70 1 -9.11513 -12.5378 -17.903
71 1 -9.37585 -14.7325 -16.1916
72 1 -10.8026 -12.7848 -15.9959
73 1 -7.54254 -14.4314 -17.9785
74 1 -5.53966 -12.8517 -17.9827
75 1 -5.50458 -14.607 -16.2709
76 1 -7.55125 -12.791 -16.0667
77 1 -3.6212 -14.44 -18.0199
78 1 -2.00056 -12.5604 -17.9419
79 1 -1.71358 -14.4161 -15.9806
80 1 -3.76257 -12.6102 -16.2273
81 1 -14.5237 -10.7339 -17.9012
82 1 -12.6724 -9.05975 -18.139
83 1 -12.5481 -11.0102 -16.1366
84 1 -14.4261 -9.26195 -16.001
85 1 -10.871 -10.6133 -18.0519
86 1 -8.9902 -8.87722 -17.903
87 1 -9.1765 -10.7924 -16.1281
88 1 -11.0036 -9.10231 -16.1149
89 1 -7.16125 -10.9198 -18.2296
90 1 -5.62028 -8.83964 -18.0371
91 1 -5.4993 -10.855 -16.2265
92 1 -7.22932 -9.08049 -16.0451
93 1 -3.6482 -10.867 -18.0577
94 1 -1.70686 -9.14429 -17.974
95 1 -1.80047 -10.8806 -16.0793
96 1 -3.77903 -9.10485 -15.9724
97 1 -14.2674 -7.13006 -17.9369
98 1 -12.6027 -5.37905 -18.09
99 1 -12.606 -7.30082 -16.013
100 1 -14.3873 -5.54922 -16.2451
101 1 -10.6965 -7.29719 -18.0994
102 1 -9.16278 -5.33411 -17.7696
103 1 -8.8002 -7.2261 -15.8559
104 1 -10.9542 -5.28652 -16.1739
105 1 -7.35337 -7.0565 -17.8663
106 1 -5.37085 -5.56379 -18.1011
107 1 -5.60942 -7.16721 -15.9641
108 1 -7.3641 -5.21478 -15.8955
109 1 -3.55442 -7.30753 -17.873
110 1 -1.92332 -5.34936 -17.9793
111 1 -1.54474 -7.43393 -16.2999
112 1 -3.28884 -5.57357 -15.9428
113 1 -14.2892 -3.71513 -18.0617
114 1 -12.6698 -1.67604 -17.995
115 1 -12.5163 -3.42594 -15.9885
116 1 -14.6809 -1.68721 -16.0796
117 1 -10.9531 -3.61432 -18.2263
118 1 -9.13078 -1.66095 -18.0533
119 1 -9.12419 -3.47963 -16.0323
120 1 -10.7764 -1.66442 -15.9624
121 1 -7.32903 -3.37353 -18.0147
122 1 -5.44147 -1.61768 -18.0328
123 1 -5.18318 -3.58994 -15.9524
124 1 -7.48834 -1.67267 -16.1743
125 1 -3.69025 -3.50896 -17.7469
126 1 -1.88162 -1.66756 -17.9755
127 1 -1.63001 -3.45227 -16.0697
128 1 -3.66775 -1.70377 -15.7621
129 1 -14.3764 -14.666 -14.2409
130 1 -13.0009 -12.5285 -14.3472
131 1 -12.5864 -14.6474 -12.3986
132 1 -14.6317 -12.5893 -12.2861
133 1 -10.8565 -14.4724 -14.3376
134 1 -8.91635 -12.7323 -14.1452
135 1 -9.03229 -14.4957 -12.3347
136 1 -10.8036 -12.8694 -12.2368
137 1 -7.18954 -14.6747 -14.2355
138 1 -5.65907 -12.7017 -14.3056
139 1 -5.45581 -14.2751 -12.3548
140 1 -7.22797 -12.5248 -12.4432
141 1 -3.59857 -14.2833 -14.1528
142 1 -1.67386 -12.533 -14.1497
143 1 -1.82883 -14.403 -12.2792
144 1 -3.59613 -12.685 -12.2125
145 1 -14.4528 -10.8142 -14.084
146 1 -12.5202 -9.1382 -14.3236
147 1 -12.6078 -10.9552 -12.14
148 1 -14.2294 -8.95491 -12.1945
149 1 -11.1463 -11.114 -14.3463
150 1 -9.39894 -9.07178 -14.18
151 1 -9.17555 -10.7773 -12.3475
152 1 -10.9739 -8.95436 -12.3975
153 1 -7.39483 -10.9947 -14.3046
154 1 -5.39721 -9.08985 -14.3027
155 1 -5.42037 -10.9708 -12.3971
156 1 -7.11384 -8.91713 -12.4235
157 1 -3.54188 -10.8302 -14.1437
158 1 -1.74693 -9.09899 -14.2705
159 1 -1.71342 -10.846 -12.4331
160 1 -3.76494 -9.19801 -12.2439
161 1 -14.229 -7.19679 -14.1858
162 1 -12.5758 -5.43398 -14.1178
163 1 -12.4097 -7.25298 -12.1815
164 1 -14.4513 -5.27523 -12.4537
165 1 -10.8462 -7.30705 -14.1515
166 1 -8.96838 -5.23038 -14.2002
167 1 -9.14937 -7.09936 -12.2659
168 1 -10.6587 -5.25736 -12.3552
169 1 -7.26342 -7.12996 -14.1512
170 1 -5.55876 -5.46561 -14.234
171 1 -5.36912 -7.28595 -12.522
172 1 -7.33687 -5.46369 -12.2137
173 1 -3.47836 -7.38302 -14.2427
174 1 -1.80713 -5.53248 -13.9183
175 1 -1.79647 -7.3344 -12.1869
176 1 -3.66775 -5.408 -12.2285
177 1 -14.3346 -3.70739 -14.133
178 1 -12.6628 -1.80885 -14.0258
179 1 -12.5608 -3.72328 -12.1225
180 1 -14.2904 -1.86053 -12.277
181 1 -11.0987 -3.62379 -13.9798
182 1 -9.04756 -1.67061 -14.2921
183 1 -8.95261 -3.34232 -12.5092
184 1 -10.6884 -1.7176 -12.2813
185 1 -7.0244 -3.28096 -14.0943
186 1 -5.36862 -1.57396 -14.1435
187 1 -5.52549 -3.80483 -12.3669
188 1 -7.28995 -1.79201 -12.332
189 1 -3.55185 -3.51936 -14.082
190 1 -1.60729 -1.77451 -13.983
191 1 -1.89055 -3.5313 -12.3347
192 1 -3.47358 -1.71886 -12.095
193 1 -14.3438 -14.3174 -10.359
194 1 -12.5316 -12.8641 -10.56
195 1 -10.7645 -14.5517 -10.2052
196 1 -8.95115 -12.6406 -10.4395
197 1 -7.18285 -14.4035 -10.3663
198 1 -5.5245 -12.3844 -10.2762
199 1 -3.41096 -14.3472 -10.4892
200 1 -1.76014 -12.669 -10.3157
201 1 -14.2905 -10.8621 -10.4651
202 1 -12.7781 -9.05132 -10.2774
203 1 -10.7862 -10.9404 -10.2382
204 1 -9.02397 -8.7132 -10.4964
205 1 -7.21236 -10.6685 -10.5872
206 1 -5.40882 -9.19419 -10.5956
207 1 -3.76348 -10.7594 -10.5411
208 1 -1.81823 -9.16662 -10.4765
209 1 -14.2266 -7.16702 -10.4756
210 1 -12.6533 -5.41681 -10.3097
211 1 -10.7825 -6.92765 -10.3725
212 1 -9.1613 -5.03833 -10.2607
213 1 -6.97275 -7.25094 -10.4114
214 1 -5.3285 -5.47111 -10.443
215 1 -3.58852 -7.37775 -10.3609
216 1 -1.89647 -5.66263 -10.4191
217 1 -14.4859 -3.73537 -10.2722
218 1 -12.565 -1.81634 -10.4228
219 1 -10.9896 -3.6485 -10.3155
220 1 -8.95352 -1.75104 -10.341
221 1 -7.06333 -3.57821 -10.4832
222 1 -5.42768 -1.62607 -10.1907
223 1 -3.6925 -3.51926 -10.5075
224 1 -1.63523 -1.64143 -10.4189
225 1 -12.641 -14.5289 -8.56129
226 1 -14.425 -12.5047 -8.83496
227 1 -9.07895 -14.3782 -8.52098
228 1 -10.6221 -12.6009 -8.30357
229 1 -5.72283 -14.2311 -8.7725
230 1 -7.32338 -12.51 -8.3368
231 1 -2.00447 -14.4382 -8.56509
232 1 -3.92102 -12.5096 -8.53313
233 1 -12.711 -10.8849 -8.55264
234 1 -14.4328 -9.06183 -8.65767
235 1 -8.92141 -10.7244 -8.48848
236 1 -10.8076 -8.96952 -8.59334
237 1 -5.52588 -10.6584 -8.47084
238 1 -7.3 -8.86845 -8.7216
239 1 -1.9327 -10.883 -8.44415
240 1 -3.59972 -9.18524 -8.73718
241 1 -12.7175 -7.21091 -8.64217
242 1 -14.4459 -5.42738 -8.61968
243 1 -8.87185 -7.13357 -8.45282
244 1 -10.804 -5.39829 -8.70106
245 1 -5.15653 -7.36901 -8.39211
246 1 -7.16734 -5.46245 -8.60181
247 1 -1.91619 -7.25402 -8.4301
248 1 -3.57024 -5.44783 -8.51382
249 1 -12.7739 -3.73365 -8.47663
250 1 -14.4736 -2.07018 -8.44695
251 1 -9.03657 -3.5304 -8.52361
252 1 -10.8485 -1.95172 -8.41663
253 1 -5.44933 -3.47023 -8.46465
254 1 -7.13798 -1.79853 -8.53461
255 1 -1.87876 -3.47399 -8.67377
256 1 -3.65897 -1.83918 -8.54283
257 1 -14.5209 -14.493 -6.82602
258 1 -12.4902 -12.7202 -6.82143
259 1 -12.5536 -14.5676 -4.91496
260 1 -14.2409 -12.6424 -4.72081
261 1 -10.6009 -14.5458 -6.67846
262 1 -8.91423 -12.6911 -6.50608
263 1 -8.84323 -14.5542 -4.64406
264 1 -10.8128 -12.6478 -4.90816
265 1 -7.10115 -14.6547 -6.58634
266 1 -5.54799 -12.5231 -6.58313
267 1 -5.55196 -14.402 -4.78318
268 1 -7.15757 -12.5718 -4.7891
269 1 -3.61387 -14.5005 -6.60403
270 1 -1.85364 -12.5499 -6.66823
271 1 -1.73381 -14.4662 -4.8907
272 1 -3.68547 -12.5748 -4.91276
273 1 -14.4993 -10.8565 -6.53915
274 1 -12.5245 -9.28018 -6.79981
275 1 -12.5722 -10.8539 -4.9846
276 1 -14.4795 -9.16892 -4.65561
277 1 -10.6619 -10.8009 -6.71541
278 1 -9.04599 -8.91452 -6.68966
279 1 -9.17882 -10.8393 -4.62236
280 1 -10.7297 -8.89795 -4.53022
281 1 -7.27774 -10.8143 -6.36427
282 1 -5.38246 -9.07386 -6.71661
283 1 -5.47102 -10.7411 -4.77479
284 1 -7.20054 -8.94515 -4.81549
285 1 -3.65447 -10.8557 -6.69847
286 1 -1.71593 -9.19273 -6.74041
287 1 -1.82314 -10.9001 -5.01963
288 1 -3.55665 -9.30337 -4.58711
289 1 -14.5448 -7.00202 -6.51163
290 1 -12.642 -5.61816 -6.74903
291 1 -12.6326 -7.28456 -4.79901
292 1 -14.3456 -5.29509 -4.79566
293 1 -10.8311 -7.37015 -6.6606
294 1 -9.03482 -5.40041 -6.83513
295 1 -8.83515 -7.22693 -4.77585
296 1 -10.8077 -5.57575 -4.8678
297 1 -7.24303 -7.33874 -6.69912
298 1 -5.47015 -5.52411 -6.80512
299 1 -5.31967 -7.08648 -4.78478
300 1 -7.01691 -5.34712 -4.96356
301 1 -3.31637 -7.36965 -6.54172
302 1 -1.94811 -5.42896 -6.67899
303 1 -1.74242 -6.98567 -4.67047
304 1 -3.44691 -5.38657 -4.69377
305 1 -14.6124 -3.65269 -6.78611
306 1 -12.7053 -1.90032 -6.7291
307 1 -12.5155 -3.63891 -4.95025
308 1 -14.4434 -1.83518 -4.69809
309 1 -10.885 -3.76754 -6.76702
310 1 -8.90002 -1.98367 -6.53458
311 1 -9.21412 -3.80376 -5.00092
312 1 -10.8894 -1.70275 -4.63585
313 1 -7.18627 -3.8758 -6.56372
314 1 -5.33113 -1.56922 -6.63528
315 1 -5.32447 -3.51638 -4.72044
316 1 -7.25467 -1.70782 -4.90634
317 1 -3.38684 -3.48986 -6.66473
318 1 -1.77222 -1.87671 -6.76966
319 1 -1.64281 -3.49535 -4.55329
320 1 -3.60008 -1.91174 -4.69412
321 1 -14.384 -14.6271 -2.84648
322 1 -12.6657 -12.5096 -2.76645
323 1 -12.7109 -14.4551 -1.25155
324 1 -14.425 -12.6154 -0.937711
325 1 -10.8331 -14.3811 -2.91978
326 1 -9.06015 -12.4444 -2.90491
327 1 -9.03834 -14.5122 -1.26422
328 1 -10.726 -12.4152 -1.18363
329 1 -7.31033 -14.5032 -2.86221
330 1 -5.48305 -12.6894 -2.96068
331 1 -5.49024 -14.2676 -1.00245
332 1 -7.27881 -12.4878 -1.14576
333 1 -3.4659 -14.3591 -3.08195
334 1 -1.71571 -12.5484 -3.13135
335 1 -1.83599 -14.5306 -1.1524
336 1 -3.47818 -12.6992 -1.16189
337 1 -14.5009 -10.8346 -3.06011
338 1 -12.6472 -8.92974 -2.98386
339 1 -12.6565 -10.7711 -1.14669
340 1 -14.4381 -8.91446 -1.32314
341 1 -11.1488 -10.7171 -3.06664
342 1 -8.94211 -9.09294 -2.91185
343 1 -8.89406 -10.6494 -1.00685
344 1 -10.8551 -9.06338 -1.14307
345 1 -7.09958 -10.7188 -2.97399
346 1 -5.22298 -8.95193 -2.90298
347 1 -5.22673 -10.7475 -1.12228
348 1 -6.98167 -8.99078 -1.07551
349 1 -3.74034 -10.9387 -3.12009
350 1 -1.88255 -9.12592 -3.00028
351 1 -1.86922 -11.0434 -1.36091
352 1 -3.53243 -9.00673 -1.11728
353 1 -14.4423 -7.08992 -3.05589
354 1 -12.511 -5.36429 -3.0763
355 1 -12.3853 -7.09024 -1.0974
356 1 -14.4719 -5.53709 -1.20396
357 1 -10.793 -7.15666 -2.91664
358 1 -9.1652 -5.44518 -3.04569
359 1 -8.8356 -7.40844 -1.08442
360 1 -10.524 -5.59045 -0.974177
361 1 -7.04825 -7.11848 -2.94584
362 1 -5.37712 -5.2477 -2.79064
363 1 -5.22333 -7.16496 -1.02555
364 1 -7.38978 -5.39135 -0.98613
365 1 -3.55209 -7.07037 -2.93107
366 1 -1.62312 -5.27311 -2.88649
367 1 -1.87974 -7.33711 -0.977839
368 1 -3.68038 -5.41592 -0.991142
369 1 -14.4813 -3.57272 -2.84529
370 1 -12.553 -1.89671 -2.92474
371 1 -12.2979 -3.80694 -1.15581
372 1 -14.4854 -1.83936 -1.14888
373 1 -10.8452 -3.70479 -2.90763
374 1 -8.95632 -1.74317 -2.98091
375 1 -8.93134 -3.55521 -1.30341
376 1 -10.8307 -1.91218 -1.06361
377 1 -7.08603 -3.5797 -2.92182
378 1 -5.20726 -1.67659 -2.76079
379 1 -5.55599 -3.57618 -0.992653
380 1 -7.2657 -1.81976 -0.98077
381 1 -3.5463 -3.67994 -3.04572
382 1 -1.82803 -1.90702 -2.75334
383 1 -1.78592 -3.63449 -0.97015
384 1 -3.54557 -1.91284 -0.687115
385 1 -14.4062 -14.1929 0.84158
386 1 -12.5848 -12.4381 0.456264
387 1 -10.8923 -14.249 0.687103
388 1 -9.08214 -12.4061 0.906364
389 1 -7.13849 -14.3757 0.584892
390 1 -5.23131 -12.704 0.778783
391 1 -3.54554 -14.4279 0.807481
392 1 -1.84533 -12.6022 0.707565
393 1 -14.3314 -10.9071 0.833219
394 1 -12.6379 -8.95607 0.713839
395 1 -10.8106 -10.818 0.640087
396 1 -8.7372 -8.98575 0.783765
397 1 -7.1813 -10.9274 0.722911
398 1 -5.32869 -9.12024 0.771887
399 1 -3.51219 -10.9576 0.719914
400 1 -1.93875 -9.18247 0.777829
401 1 -14.3793 -7.32873 0.678145
402 1 -12.6665 -5.44978 0.75014
403 1 -10.7958 -7.22607 0.815362
404 1 -9.07731 -5.44987 0.911884
405 1 -6.96337 -7.21963 0.74549
406 1 -5.12239 -5.35858 0.760958
407 1 -3.58523 -7.37569 0.797892
408 1 -1.95969 -5.68581 0.681279
409 1 -14.4598 -3.79825 0.702641
410 1 -12.7142 -2.01817 0.448178
411 1 -10.5698 -3.53996 0.651623
412 1 -9.02818 -1.73839 0.922893
413 1 -7.2849 -3.64746 0.777964
414 1 -5.4641 -1.73382 0.603617
415 1 -3.58199 -3.38646 1.09866
416 1 -1.57589 -1.74188 0.758101
417 1 -14.456 0 -21.684
418 1 -12.649 1.807 -21.684
419 1 -12.649 0 -19.877
420 1 -14.456 1.807 -19.877
421 1 -10.842 0 -21.684
422 1 -9.035 1.807 -21.684
423 1 -9.035 0 -19.877
424 1 -10.842 1.807 -19.877
425 1 -7.228 0 -21.684
426 1 -5.421 1.807 -21.684
427 1 -5.421 0 -19.877
428 1 -7.228 1.807 -19.877
429 1 -3.614 0 -21.684
430 1 -1.807 1.807 -21.684
431 1 -1.807 0 -19.877
432 1 -3.614 1.807 -19.877
433 1 -14.456 3.614 -21.684
434 1 -12.649 5.421 -21.684
435 1 -12.649 3.614 -19.877
436 1 -14.456 5.421 -19.877
437 1 -10.842 3.614 -21.684
438 1 -9.035 5.421 -21.684
439 1 -9.035 3.614 -19.877
440 1 -10.842 5.421 -19.877
441 1 -7.228 3.614 -21.684
442 1 -5.421 5.421 -21.684
443 1 -5.421 3.614 -19.877
444 1 -7.228 5.421 -19.877
445 1 -3.614 3.614 -21.684
446 1 -1.807 5.421 -21.684
447 1 -1.807 3.614 -19.877
448 1 -3.614 5.421 -19.877
449 1 -14.456 7.228 -21.684
450 1 -12.649 9.035 -21.684
451 1 -12.649 7.228 -19.877
452 1 -14.456 9.035 -19.877
453 1 -10.842 7.228 -21.684
454 1 -9.035 9.035 -21.684
455 1 -9.035 7.228 -19.877
456 1 -10.842 9.035 -19.877
457 1 -7.228 7.228 -21.684
458 1 -5.421 9.035 -21.684
459 1 -5.421 7.228 -19.877
460 1 -7.228 9.035 -19.877
461 1 -3.614 7.228 -21.684
462 1 -1.807 9.035 -21.684
463 1 -1.807 7.228 -19.877
464 1 -3.614 9.035 -19.877
465 1 -14.456 10.842 -21.684
466 1 -12.649 12.649 -21.684
467 1 -12.649 10.842 -19.877
468 1 -14.456 12.649 -19.877
469 1 -10.842 10.842 -21.684
470 1 -9.035 12.649 -21.684
471 1 -9.035 10.842 -19.877
472 1 -10.842 12.649 -19.877
473 1 -7.228 10.842 -21.684
474 1 -5.421 12.649 -21.684
475 1 -5.421 10.842 -19.877
476 1 -7.228 12.649 -19.877
477 1 -3.614 10.842 -21.684
478 1 -1.807 12.649 -21.684
479 1 -1.807 10.842 -19.877
480 1 -3.614 12.649 -19.877
481 1 -14.4649 0.115231 -18.0973
482 1 -12.8296 1.83682 -17.6799
483 1 -12.6367 0.0593613 -16.0918
484 1 -14.6437 1.90163 -15.7438
485 1 -10.8926 0.111418 -17.8587
486 1 -9.02447 1.94204 -17.8919
487 1 -9.27315 0.187999 -16.1214
488 1 -11.007 1.85823 -16.0729
489 1 -7.39333 0.0801831 -18.2598
490 1 -5.5875 1.67032 -18.166
491 1 -5.39602 0.265411 -15.8875
492 1 -7.29252 1.94494 -16.035
493 1 -3.72157 0.211648 -17.9891
494 1 -1.64917 1.79079 -17.8165
495 1 -1.99151 0.1619 -16.0542
496 1 -3.67821 1.97007 -16.0152
497 1 -14.379 3.63667 -17.9446
498 1 -12.6545 5.61811 -18.0004
499 1 -12.593 3.57066 -15.8081
500 1 -14.3419 5.36106 -16.2364
501 1 -10.9126 3.84964 -18.1998
502 1 -8.99831 5.46676 -18.018
503 1 -9.10769 3.54634 -16.0881
504 1 -11.0623 5.46764 -16.2138
505 1 -7.18835 3.68672 -17.9262
506 1 -5.41379 5.23234 -18.1089
507 1 -5.58401 3.67922 -16.266
508 1 -7.22793 5.23133 -16.0865
509 1 -3.63695 3.59249 -18.1926
510 1 -1.79183 5.41771 -17.939
511 1 -1.61073 3.70999 -16.1758
512 1 -3.67685 5.23096 -16.2491
513 1 -14.3914 7.41391 -17.9985
514 1 -12.4648 9.17647 -18.1764
515 1 -12.6945 7.28451 -15.8032
516 1 -14.2477 9.16761 -16.1968
517 1 -10.8953 7.34002 -17.8354
518 1 -9.06426 8.80154 -17.9657
519 1 -9.12544 7.15935 -15.8363
520 1 -10.7625 9.07297 -16.0365
521 1 -7.25434 7.10798 -17.8407
522 1 -5.62525 8.98481 -18.1592
523 1 -5.31394 7.22693 -16.1296
524 1 -7.11681 8.93674 -15.8653
525 1 -3.7633 7.28957 -18.007
526 1 -1.86961 9.14555 -18.1734
527 1 -1.77423 7.26365 -16.2995
528 1 -3.68028 9.09884 -16.2686
529 1 -14.5155 10.9911 -18.0184
530 1 -12.5798 12.5718 -18.0489
531 1 -12.5616 10.7215 -16.1711
532 1 -14.4931 12.6683 -16.2211
533 1 -10.6638 10.7343 -17.9483
534 1 -9.01875 12.57 -17.941
535 1 -8.79814 10.5968 -15.9783
536 1 -10.6646 12.3936 -16.1934
537 1 -7.30884 10.8278 -18.0123
538 1 -5.58232 12.6862 -17.8544
539 1 -5.45524 10.7253 -16.0449
540 1 -7.43412 12.5149 -16.0308
541 1 -3.7775 10.9183 -17.92
542 1 -1.76374 12.6637 -18.171
543 1 -1.89991 10.8825 -16.1293
544 1 -3.40988 12.78 -16.0424
545 1 -14.5006 -0.079002 -14.0325
546 1 -12.6468 1.94565 -13.9373
547 1 -12.4761 0.00444289 -12.4194
548 1 -14.5219 1.7497 -12.0634
549 1 -10.8279 0.0664411 -14.2804
550 1 -9.28542 1.91825 -14.0576
551 1 -8.94276 -0.0146633 -12.4454
552 1 -10.8891 1.87492 -12.22
553 1 -7.41853 0.197172 -14.3221
554 1 -5.48766 2.00331 -13.9142
555 1 -5.47394 0.0278276 -12.1952
556 1 -7.39212 1.9256 -12.332
557 1 -3.5033 0.102486 -14.1663
558 1 -1.71615 1.97017 -14.2081
559 1 -1.74072 0.0577012 -12.0616
560 1 -3.6258 1.7553 -12.1993
561 1 -14.6787 3.73196 -14.1482
562 1 -12.8414 5.36765 -14.1424
563 1 -12.7827 3.7096 -12.2661
564 1 -14.7609 5.31124 -12.3747
565 1 -10.7666 3.88627 -14.109
566 1 -9.08578 5.46048 -14.0104
567 1 -9.10855 3.68067 -12.169
568 1 -10.8514 5.29458 -12.3
569 1 -7.18583 3.78254 -14.1921
570 1 -5.2781 5.07314 -14.2258
571 1 -5.40663 3.70024 -12.088
572 1 -7.14658 5.37586 -12.3198
573 1 -3.49848 3.48599 -14.0423
574 1 -2.03645 5.37753 -14.2532
575 1 -1.73653 3.55213 -12.1758
576 1 -3.55333 5.345 -12.4533
577 1 -14.4579 7.3605 -14.1538
578 1 -12.6758 9.05481 -14.0765
579 1 -12.6048 7.19595 -12.3379
580 1 -14.3632 9.03009 -12.4671
581 1 -10.7648 7.17502 -14.1523
582 1 -8.84124 9.05791 -14.0437
583 1 -8.87739 7.06918 -12.2636
584 1 -10.883 8.95858 -12.5546
585 1 -7.03513 7.15518 -14.0603
586 1 -5.29736 9.24514 -14.1454
587 1 -5.30474 6.94589 -12.0999
588 1 -7.04702 8.99536 -12.1365
589 1 -3.64127 7.32166 -14.2101
590 1 -2.12028 8.91072 -14.2729
591 1 -1.85681 7.08913 -12.5077
592 1 -3.506 9.06934 -12.2017
593 1 -14.0589 10.936 -14.1841
594 1 -12.3468 12.4855 -14.19
595 1 -12.536 10.6718 -11.9584
596 1 -14.4659 12.5607 -12.289
597 1 -10.5506 10.7672 -14.0553
598 1 -9.14609 12.491 -13.9474
599 1 -8.92878 10.9295 -12.0367
600 1 -10.7482 12.7628 -12.2828
601 1 -7.10199 10.9434 -13.9908
602 1 -5.29114 12.8041 -14.0755
603 1 -5.25314 10.78 -12.1592
604 1 -7.15584 12.6066 -12.2147
605 1 -3.54152 10.9331 -14.3786
606 1 -1.93887 12.6973 -14.3432
607 1 -1.91295 10.8831 -12.3676
608 1 -3.60333 12.7895 -12.2722
609 1 -14.4053 -0.216548 -10.5448
610 1 -12.5591 1.68809 -10.3813
611 1 -10.998 -0.162421 -10.4485
612 1 -9.05781 1.80553 -10.7184
613 1 -7.17596 0.135612 -10.3109
614 1 -5.2897 1.88858 -10.2938
615 1 -3.78799 -0.0806894 -10.3471
616 1 -1.83031 1.82773 -10.1106
617 1 -14.4948 3.54135 -10.4869
618 1 -12.9061 5.38978 -10.352
619 1 -10.9027 3.76804 -10.2932
620 1 -9.21387 5.39661 -10.2199
621 1 -7.33318 3.6612 -10.5864
622 1 -5.22222 5.24319 -10.2197
623 1 -3.46567 3.52434 -10.3821
624 1 -1.70953 5.48133 -10.1788
625 1 -14.4958 7.43484 -10.382
626 1 -12.5612 9.00761 -10.168
627 1 -10.8642 7.06559 -10.1849
628 1 -9.14521 8.74663 -10.5891
629 1 -7.17894 7.40406 -10.192
630 1 -5.24004 8.91346 -10.2263
631 1 -3.65791 7.13574 -10.2589
632 1 -1.7042 8.66691 -10.2131
633 1 -14.3722 10.7753 -10.4498
634 1 -12.6438 12.5584 -10.4181
635 1 -10.6614 10.7046 -10.3569
636 1 -8.91411 12.5418 -10.3254
637 1 -7.246 10.6714 -10.3232
638 1 -5.46793 12.5269 -10.4597
639 1 -3.30098 10.7591 -10.2136
640 1 -1.93229 12.5397 -10.1965
641 1 -12.6524 -0.288012 -8.41733
642 1 -14.3497 1.76122 -8.67892
643 1 -9.03623 -0.121807 -8.55779
644 1 -10.8186 1.51799 -8.69878
645 1 -5.30208 0.0153605 -8.34939
646 1 -7.2993 1.88708 -8.63133
647 1 -1.84788 0.1756 -8.4957
648 1 -3.52796 1.99351 -8.33101
649 1 -12.4436 3.43849 -8.67992
650 1 -14.518 5.44917 -8.51218
651 1 -9.18173 3.56887 -8.77239
652 1 -10.7897 5.36214 -8.44423
653 1 -5.48787 3.57066 -8.3038
654 1 -7.16148 5.15116 -8.62581
655 1 -1.75964 3.55688 -8.40381
656 1 -3.53323 5.33025 -8.38206
657 1 -12.8022 6.998 -8.47498
658 1 -14.5658 9.06465 -8.59288
659 1 -9.03982 7.19282 -8.40981
660 1 -10.6625 9.06416 -8.50245
661 1 -5.50333 7.16949 -8.51438
662 1 -7.41801 8.96216 -8.41442
663 1 -1.91456 7.06243 -8.51138
664 1 -3.49951 8.80511 -8.45233
665 1 -12.6496 10.7752 -8.42211
666 1 -14.4639 12.7252 -8.39022
667 1 -8.87006 10.878 -8.30929
668 1 -10.6099 12.5768 -8.62067
669 1 -5.57937 10.7134 -8.5294
670 1 -7.22516 12.7688 -8.56091
671 1 -1.68962 10.714 -8.45072
672 1 -3.65434 12.5806 -8.42385
673 1 -14.3988 -0.154039 -6.71899
674 1 -12.609 1.73924 -6.73759
675 1 -12.581 0.0361992 -4.75499
676 1 -14.5699 1.70537 -4.72885
677 1 -10.8367 -0.259405 -6.57146
678 1 -9.0088 1.67759 -6.83692
679 1 -8.90205 0.0365482 -4.65395
680 1 -10.7578 1.66069 -4.98674
681 1 -7.38818 0.018505 -6.57576
682 1 -5.43334 1.82238 -6.66123
683 1 -5.33155 -0.120122 -4.79417
684 1 -7.0065 1.71027 -4.72732
685 1 -3.5052 -0.0803784 -6.5705
686 1 -1.79538 1.81095 -6.42832
687 1 -1.8893 -0.0625791 -4.59561
688 1 -3.72092 1.80321 -4.62193
689 1 -14.4239 3.53885 -6.7489
690 1 -12.6596 5.09395 -6.81161
691 1 -12.541 3.39421 -4.88521
692 1 -14.2311 5.26182 -4.82534
693 1 -10.7875 3.39396 -6.82072
694 1 -9.18637 5.45498 -6.68331
695 1 -8.91951 3.52926 -4.80122
696 1 -10.8661 5.43271 -4.90457
697 1 -7.40065 3.64557 -6.75766
698 1 -5.55702 5.45172 -6.56237
699 1 -5.66613 3.71493 -4.64488
700 1 -7.3281 5.43516 -4.81848
701 1 -3.54044 3.36581 -6.69257
702 1 -1.77021 5.50837 -6.65689
703 1 -1.94635 3.74138 -4.65906
704 1 -3.62664 5.5207 -4.93653
705 1 -14.554 7.11826 -6.65855
706 1 -12.7269 8.87972 -6.68749
707 1 -12.7271 7.1382 -4.85154
708 1 -14.4165 9.19021 -4.82033
709 1 -10.9545 7.15653 -6.47771
710 1 -9.18142 9.04737 -6.65507
711 1 -9.08235 7.3774 -4.90471
712 1 -10.8544 9.14134 -4.91909
713 1 -7.29036 6.92215 -6.74583
714 1 -5.53135 9.0585 -6.68331
715 1 -5.5393 7.35037 -4.84211
716 1 -7.25261 9.00296 -4.77151
717 1 -3.73759 7.06216 -6.83538
718 1 -1.89887 8.83026 -6.65037
719 1 -2.03236 7.18391 -4.90511
720 1 -3.60242 9.12205 -4.7737
721 1 -14.5522 10.8806 -6.50074
722 1 -12.5722 12.7281 -6.69049
723 1 -12.7957 10.8134 -4.78128
724 1 -14.3619 12.8162 -4.94158
725 1 -10.9704 10.7732 -6.80258
726 1 -8.90606 12.7131 -6.51411
727 1 -8.97408 11.0278 -4.76321
728 1 -10.7307 12.6014 -4.77371
729 1 -7.41446 10.81 -6.52563
730 1 -5.47648 12.5627 -6.53625
731 1 -5.54233 10.822 -4.70836
732 1 -7.14206 12.5532 -4.74845
733 1 -3.51744 10.6514 -6.75072
734 1 -1.80152 12.5225 -6.51686
735 1 -1.75344 10.9693 -4.80008
736 1 -3.61422 12.7197 -4.66828
737 1 -14.387 -0.0995327 -2.97474
738 1 -12.5066 1.87437 -3.08081
739 1 -12.7738 -0.0520615 -1.1072
740 1 -14.5899 1.72181 -1.27855
741 1 -10.7642 0.0700558 -2.76884
742 1 -8.95633 1.74928 -3.10107
743 1 -8.98905 -0.0545975 -0.941477
744 1 -10.8674 1.61693 -0.802593
745 1 -7.22118 0.16235 -2.75531
746 1 -5.27261 1.70972 -2.80539
747 1 -5.38083 -0.107793 -1.07151
748 1 -7.24687 1.80667 -0.784586
749 1 -3.48186 0.0246917 -2.71272
750 1 -1.80565 1.72118 -2.88312
751 1 -1.94705 0.11136 -0.842833
752 1 -3.53546 2.02971 -0.881001
753 1 -14.3955 3.41572 -2.91298
754 1 -12.545 5.27848 -2.94541
755 1 -12.6444 3.55101 -1.26806
756 1 -14.3744 5.46398 -1.14885
757 1 -10.8359 3.70562 -3.06168
758 1 -9.16547 5.47908 -3.01103
759 1 -9.19164 3.67601 -1.10752
760 1 -10.9527 5.42638 -0.986148
761 1 -7.34593 3.58259 -2.8375
762 1 -5.38884 5.48055 -3.10052
763 1 -5.51888 3.7691 -1.19506
764 1 -7.53876 5.38534 -1.01956
765 1 -3.52597 3.63127 -2.93587
766 1 -1.78954 5.3468 -2.94049
767 1 -1.79455 3.55331 -1.10281
768 1 -3.52609 5.42255 -1.18981
769 1 -14.5374 7.01194 -3.02923
770 1 -12.7748 8.91408 -3.01249
771 1 -12.5745 7.32331 -1.17631
772 1 -14.4093 9.03907 -0.904366
773 1 -10.7146 7.23905 -3.07906
774 1 -9.08596 9.04234 -3.0697
775 1 -9.10378 7.21928 -1.23582
776 1 -11.0469 9.00178 -0.960464
777 1 -7.32714 7.09508 -2.84512
778 1 -5.58992 9.09399 -2.92327
779 1 -5.6305 7.11786 -1.06809
780 1 -7.29202 9.03162 -1.32786
781 1 -3.6149 7.26939 -2.82292
782 1 -1.78693 8.9739 -3.17683
783 1 -1.93644 7.24691 -1.02681
784 1 -3.7029 9.01806 -0.945446
785 1 -14.3626 10.8287 -2.83923
786 1 -12.6599 12.6084 -2.95177
787 1 -12.8389 11.1103 -0.974172
788 1 -14.4396 12.7329 -0.866995
789 1 -10.856 10.9018 -2.9144
790 1 -9.27021 12.6756 -2.88752
791 1 -9.03601 10.8464 -1.04856
792 1 -11.0668 12.6979 -1.17712
793 1 -7.29082 10.968 -2.89037
794 1 -5.43535 12.465 -2.98015
795 1 -5.45848 10.7408 -1.11458
796 1 -7.19918 12.641 -1.12964
797 1 -3.69905 10.7317 -2.80442
798 1 -1.86641 12.6538 -2.92615
799 1 -1.71591 10.8641 -1.12316
800 1 -3.6328 12.6106 -1.06835
801 1 -14.599 -0.208951 0.804209
802 1 -12.6813 1.80402 0.838087
803 1 -10.9202 -0.320597 0.785631
804 1 -9.04524 1.71211 0.710527
805 1 -7.28267 0.115231 1.10348
806 1 -5.40405 1.69092 0.844488
807 1 -3.62179 -0.0761137 0.799905
808 1 -1.74652 1.60349 1.13814
809 1 -14.3618 3.54408 0.55446
810 1 -12.6509 5.23431 0.571333
811 1 -10.6638 3.67609 0.617735
812 1 -9.08008 5.66511 0.891588
813 1 -7.51294 3.62873 0.98682
814 1 -5.72323 5.27999 0.741903
815 1 -3.59083 3.77678 0.766148
816 1 -1.81022 5.33831 0.704149
817 1 -14.4524 7.18911 0.711058
818 1 -12.5679 8.91623 0.936581
819 1 -10.9974 7.19928 0.590798
820 1 -9.13732 8.97539 0.437799
821 1 -7.19675 7.33142 0.72714
822 1 -5.35834 8.8671 0.874809
823 1 -3.90153 6.6791 0.83364
824 1 -1.61121 9.08436 0.795627
825 1 -14.3531 10.8081 0.878362
826 1 -12.6593 12.892 0.822851
827 1 -11.0464 10.9531 0.738988
828 1 -8.82576 12.4066 0.777813
829 1 -7.0637 10.6954 0.744217
830 1 -5.27902 12.5195 0.843778
831 1 -3.55245 10.7748 0.815822
832 1 -1.74272 12.3893 0.501556
833 1 0 -14.456 -21.684
834 1 1.807 -12.649 -21.684
835 1 1.807 -14.456 -19.877
836 1 0 -12.649 -19.877
837 1 3.614 -14.456 -21.684
838 1 5.421 -12.649 -21.684
839 1 5.421 -14.456 -19.877
840 1 3.614 -12.649 -19.877
841 1 7.228 -14.456 -21.684
842 1 9.035 -12.649 -21.684
843 1 9.035 -14.456 -19.877
844 1 7.228 -12.649 -19.877
845 1 10.842 -14.456 -21.684
846 1 12.649 -12.649 -21.684
847 1 12.649 -14.456 -19.877
848 1 10.842 -12.649 -19.877
849 1 0 -10.842 -21.684
850 1 1.807 -9.035 -21.684
851 1 1.807 -10.842 -19.877
852 1 0 -9.035 -19.877
853 1 3.614 -10.842 -21.684
854 1 5.421 -9.035 -21.684
855 1 5.421 -10.842 -19.877
856 1 3.614 -9.035 -19.877
857 1 7.228 -10.842 -21.684
858 1 9.035 -9.035 -21.684
859 1 9.035 -10.842 -19.877
860 1 7.228 -9.035 -19.877
861 1 10.842 -10.842 -21.684
862 1 12.649 -9.035 -21.684
863 1 12.649 -10.842 -19.877
864 1 10.842 -9.035 -19.877
865 1 0 -7.228 -21.684
866 1 1.807 -5.421 -21.684
867 1 1.807 -7.228 -19.877
868 1 0 -5.421 -19.877
869 1 3.614 -7.228 -21.684
870 1 5.421 -5.421 -21.684
871 1 5.421 -7.228 -19.877
872 1 3.614 -5.421 -19.877
873 1 7.228 -7.228 -21.684
874 1 9.035 -5.421 -21.684
875 1 9.035 -7.228 -19.877
876 1 7.228 -5.421 -19.877
877 1 10.842 -7.228 -21.684
878 1 12.649 -5.421 -21.684
879 1 12.649 -7.228 -19.877
880 1 10.842 -5.421 -19.877
881 1 0 -3.614 -21.684
882 1 1.807 -1.807 -21.684
883 1 1.807 -3.614 -19.877
884 1 0 -1.807 -19.877
885 1 3.614 -3.614 -21.684
886 1 5.421 -1.807 -21.684
887 1 5.421 -3.614 -19.877
888 1 3.614 -1.807 -19.877
889 1 7.228 -3.614 -21.684
890 1 9.035 -1.807 -21.684
891 1 9.035 -3.614 -19.877
892 1 7.228 -1.807 -19.877
893 1 10.842 -3.614 -21.684
894 1 12.649 -1.807 -21.684
895 1 12.649 -3.614 -19.877
896 1 10.842 -1.807 -19.877
897 1 -0.0915227 -14.5099 -18.1292
898 1 1.90247 -12.7048 -17.8792
899 1 1.6536 -14.6013 -16.0349
900 1 0.0841424 -12.876 -16.1958
901 1 3.61432 -14.4935 -17.8907
902 1 5.41055 -12.5448 -18.0542
903 1 5.33111 -14.5149 -16.3144
904 1 3.72326 -12.385 -16.1725
905 1 7.14483 -14.6411 -18.1646
906 1 8.82593 -12.8863 -17.8515
907 1 8.95134 -14.6144 -16.065
908 1 7.14102 -12.5724 -16.062
909 1 10.7656 -14.3563 -18.0166
910 1 12.5796 -12.5884 -17.9707
911 1 12.7907 -14.4549 -16.0359
912 1 10.5522 -12.8248 -16.1209
913 1 0.0372218 -11.2063 -17.8357
914 1 1.57486 -9.0716 -18.0518
915 1 1.86874 -10.7443 -15.9366
916 1 -0.00366784 -9.20512 -16.1104
917 1 3.60009 -10.6605 -17.9201
918 1 5.27398 -8.98029 -18.0328
919 1 5.3798 -10.6739 -16.0592
920 1 3.56256 -9.11524 -15.8834
921 1 7.04115 -10.8057 -18.0951
922 1 9.23727 -9.25847 -17.7986
923 1 8.9057 -10.867 -15.7468
924 1 7.26728 -9.193 -16.139
925 1 10.9236 -11.0581 -17.7202
926 1 12.6608 -9.16934 -17.8065
927 1 12.644 -10.6867 -16.0558
928 1 10.6695 -9.01677 -15.9204
929 1 -0.0285627 -7.09658 -18.1025
930 1 1.97214 -5.44829 -18.0119
931 1 1.80596 -7.15149 -16.3011
932 1 -0.147061 -5.29956 -15.8877
933 1 3.47547 -7.3015 -17.8817
934 1 5.43203 -5.46943 -18.109
935 1 5.39357 -7.16291 -16.0214
936 1 3.76895 -5.36867 -16.0623
937 1 7.29372 -7.27328 -17.6899
938 1 9.08127 -5.64373 -18.0586
939 1 9.04242 -7.32815 -16.1297
940 1 7.21738 -5.4317 -16.193
941 1 10.8148 -7.19714 -17.9601
942 1 12.6749 -5.42038 -18.1507
943 1 12.7574 -7.20649 -16.2353
944 1 10.8206 -5.51542 -15.9101
945 1 -0.0298357 -3.52119 -17.8205
946 1 1.72739 -1.91627 -17.8896
947 1 1.54658 -3.43568 -15.8816
948 1 -0.03033 -1.28136 -15.9986
949 1 3.64211 -3.63987 -18.1484
950 1 5.42108 -1.72604 -18.0153
951 1 5.51836 -3.72353 -16.3083
952 1 3.84445 -1.77632 -16.2117