LAMMPS (29 Aug 2024 - Update 2)
units metal
dimension 3
boundary p p s
atom_style atomic

lattice fcc 4.08
Lattice spacing in x,y,z = 4.08 4.08 4.08
variable cubel equal 4
variable fixer1 equal "v_cubel+2"
variable fixer2 equal "v_cubel+1.49"

region box block -${cubel} ${cubel} -${cubel} ${cubel} -${fixer1} 1 units lattice
region box block -4 ${cubel} -${cubel} ${cubel} -${fixer1} 1 units lattice
region box block -4 4 -${cubel} ${cubel} -${fixer1} 1 units lattice
region box block -4 4 -4 ${cubel} -${fixer1} 1 units lattice
region box block -4 4 -4 4 -${fixer1} 1 units lattice
region box block -4 4 -4 4 -6 1 units lattice
region cbox block -${cubel} ${cubel} -${cubel} ${cubel} -${fixer1} 0 units lattice
region cbox block -4 ${cubel} -${cubel} ${cubel} -${fixer1} 0 units lattice
region cbox block -4 4 -${cubel} ${cubel} -${fixer1} 0 units lattice
region cbox block -4 4 -4 ${cubel} -${fixer1} 0 units lattice
region cbox block -4 4 -4 4 -${fixer1} 0 units lattice
region cbox block -4 4 -4 4 -6 0 units lattice
create_box 1 box
Created orthogonal box = (-16.32 -16.32 -24.48) to (16.32 16.32 4.08)
  2 by 2 by 2 MPI processor grid
create_atoms 1 region cbox
Created 1664 atoms
  using lattice units in orthogonal box = (-16.32 -16.32 -24.482856) to (16.32 16.32 4.082856)
  create_atoms CPU = 0.004 seconds
create_atoms 1 single -0.5 0 0.5 units lattice
Created 1 atoms
  using lattice units in orthogonal box = (-16.32 -16.32 -24.482856) to (16.32 16.32 4.082856)
  create_atoms CPU = 0.002 seconds

# Define regions and groups
region hold block INF INF INF INF -${fixer1} -${fixer2} units lattice
region hold block INF INF INF INF -6 -${fixer2} units lattice
region hold block INF INF INF INF -6 -5.49 units lattice
region temp block INF INF INF INF -${fixer2} -${cubel} units lattice
region temp block INF INF INF INF -5.49 -${cubel} units lattice
region temp block INF INF INF INF -5.49 -4 units lattice
group hold region hold
256 atoms in group hold
group temp region temp
384 atoms in group temp

# Define adatom group by position
region adatom block -1 -0.1 -0.1 0.1 0.4 0.6 units lattice
group adatom region adatom
1 atoms in group adatom

pair_style eam
pair_coeff * * Au_u3.eam
Reading eam potential file Au_u3.eam with DATE: 2007-06-11

timestep        0.005
compute         new all temp
velocity        temp create 300 12345
fix heater temp temp/rescale 1 850 850 5 1
fix nve all nve
fix freeze hold setforce 0 0 0

# MSD tracking
compute msd_adatom adatom msd
fix msdout all ave/time 10 100 1000 c_msd_adatom[4] file msd_adatom.txt

# Energy logging
variable e     equal pe
variable k     equal ke
variable t     equal etotal
variable T     equal temp
fix energy all ave/time 1 50 50 v_k v_e v_t v_T file energy_avg.txt

minimize 1.0e-4 1.0e-6 1000 10000
Neighbor list info ...
  update: every = 1 steps, delay = 0 steps, check = yes
  max neighbors/atom: 2000, page size: 100000
  master list distance cutoff = 7.55
  ghost atom cutoff = 7.55
  binsize = 3.775, bins = 9 9 8
  1 neighbor lists, perpetual/occasional/extra = 1 0 0
  (1) pair eam, perpetual
      attributes: half, newton on
      pair build: half/bin/atomonly/newton
      stencil: half/bin/3d
      bin: standard
Per MPI rank memory allocation (min/avg/max) = 4.865 | 4.865 | 4.866 Mbytes
   Step          Temp          E_pair         E_mol          TotEng         Press          Volume    
         0   69.050481     -6412.7381      0             -6397.8861     -21771.25       28259.687    
         3   69.050481     -6416.8923      0             -6402.0403     -17773.923      28259.687    
Loop time of 0.00151389 on 8 procs for 3 steps with 1665 atoms

99.2% CPU use with 8 MPI tasks x no OpenMP threads

Minimization stats:
  Stopping criterion = energy tolerance
  Energy initial, next-to-last, final = 
     -6412.73808210014  -6416.46402761983  -6416.89232626278
  Force two-norm initial, final = 7.5009241 1.1906475
  Force max component initial, final = 1.7440699 0.47805548
  Final line search alpha, max atom move = 0.10167148 0.048604607
  Iterations, force evaluations = 3 3

MPI task timing breakdown:
Section |  min time  |  avg time  |  max time  |%varavg| %total
---------------------------------------------------------------
Pair    | 0.0012113  | 0.0012141  | 0.0012165  |   0.0 | 80.20
Neigh   | 0          | 0          | 0          |   0.0 |  0.00
Comm    | 0.00015558 | 0.00015849 | 0.00016179 |   0.0 | 10.47
Output  | 0          | 0          | 0          |   0.0 |  0.00
Modify  | 1.707e-06  | 2.5832e-06 | 3.834e-06  |   0.0 |  0.17
Other   |            | 0.0001387  |            |       |  9.16

Nlocal:        208.125 ave         224 max         192 min
Histogram: 4 0 0 0 0 0 0 0 0 4
Nghost:        973.875 ave        1014 max         933 min
Histogram: 4 0 0 0 0 0 0 0 0 4
Neighs:        8084.12 ave        9414 max        6750 min
Histogram: 4 0 0 0 0 0 0 0 0 4

Total # of neighbors = 64673
Ave neighs/atom = 38.842643
Neighbor list builds = 0
Dangerous builds = 0

# Dump every 1000 steps
dump eve all custom 1000 dump.Au.lammpstrj id type xu yu zu
dump_modify eve sort id

thermo 50
run 50000
Per MPI rank memory allocation (min/avg/max) = 3.756 | 3.756 | 3.756 Mbytes
   Step          Temp          E_pair         E_mol          TotEng         Press          Volume    
         3   69.050481     -6416.8923      0             -6402.0403     -17977.241      27940.076    
        50   229.11743     -6336.2682      0             -6286.9876      5652.4872      27610.604    
       100   257.56142     -6364.9124      0             -6309.5138     -1039.2868      27237.714    
       150   288.93267     -6353.6358      0             -6291.4896     -10480.084      27467.921    
       200   290.4364      -6347.8979      0             -6285.4283     -23987.75       27905.349    
       250   310.84043     -6347.8375      0             -6280.9792     -29081.742      28090.705    
       300   325.09308     -6334.0988      0             -6264.1749     -19654.493      27880.733    
       350   333.38516     -6329.378       0             -6257.6706     -23096.715      27888.413    
       400   348.84349     -6333.3252      0             -6258.2928     -29172.499      28280.917    
       450   362.49889     -6330.956       0             -6252.9866     -27638.789      28247.099    
       500   386.29951     -6327.6252      0             -6244.5365     -14911.49       27890.521    
       550   408.31543     -6327.1265      0             -6239.3024      242.6214       27688.641    
       600   423.07083     -6322.3556      0             -6231.3578     -1510.6187      27608.571    
       650   420.44127     -6325.0562      0             -6234.624      -5999.0986      27502.792    
       700   447.52781     -6323.8237      0             -6227.5655      388.04791      27502.792    
       750   462.43585     -6318.7865      0             -6219.3217      3293.7684      27717.79     
       800   467.19314     -6312.4439      0             -6211.9559     -1663.7653      27430.702    
       850   474.359       -6311.4216      0             -6209.3923     -19249.822      27669.08     
       900   472.66979     -6306.2438      0             -6204.5778     -25561.333      28198.522    
       950   501.93753     -6302.8362      0             -6194.875      -20832.57       28099.119    
      1000   487.86134     -6289.9103      0             -6184.9768     -18012.554      28353.041    
      1050   506.35855     -6293.704       0             -6184.7919     -26115.96       28593.55     
      1100   492.93422     -6293.5435      0             -6187.5188     -29750.732      28461.31     
      1150   530.86705     -6299.2755      0             -6185.0919     -22433.791      27886.459    
      1200   532.09606     -6294.3646      0             -6179.9167     -7305.2701      27397.363    
      1250   537.06826     -6293.1473      0             -6177.6299     -40.123921      27845.003    
      1300   534.49313     -6298.8421      0             -6183.8785     -6585.2845      28056.322    
      1350   543.08157     -6295.613       0             -6178.8022     -3500.4445      27682.83     
      1400   560.24358     -6295.4903      0             -6174.9881      3747.391       27668.496    
      1450   570.29483     -6288.4052      0             -6165.7411      5309.0068      27598.009    
      1500   585.30586     -6286.3954      0             -6160.5026     -7221.0803      28036.309    
      1550   563.95204     -6284.2054      0             -6162.9056     -20028.167      28439.08     
      1600   574.31289     -6279.2566      0             -6155.7283     -22357.578      28357.307    
      1650   594.24926     -6278.8426      0             -6151.0262     -19511.097      28175.956    
      1700   574.94298     -6268.7966      0             -6145.1328     -22258.649      27770.749    
      1750   587.47599     -6272.7675      0             -6146.408      -29848.912      28216.293    
      1800   566.46355     -6269.1019      0             -6147.2618     -26609.197      28705.659    
      1850   602.66797     -6272.8246      0             -6143.1974     -17431.356      28526.482    
      1900   615.47371     -6275.5424      0             -6143.1609     -4958.8927      27266.209    
      1950   619.32672     -6278.5007      0             -6145.2904     -2959.6309      27311.268    
      2000   607.31034     -6279.882       0             -6149.2563     -6109.1084      28032.774    
      2050   611.42913     -6274.8981      0             -6143.3865     -223.83388      28523.077    
      2100   634.33112     -6280.1818      0             -6143.7442      7148.298       27743.006    
      2150   639.09502     -6271.9847      0             -6134.5225      2155.3841      27627.503    
      2200   624.93548     -6271.5037      0             -6137.0871     -10124.528      27600.886    
      2250   599.18279     -6266.3465      0             -6137.469      -19875.953      28289.434    
      2300   640.39949     -6267.1198      0             -6129.377      -20961.996      28795.946    
      2350   640.71439     -6258.9205      0             -6121.11       -16847.186      28070.985    
      2400   622.61963     -6258.3425      0             -6124.4239     -24152.223      27914.86     
      2450   615.20437     -6259.4732      0             -6127.1496     -31152.759      28109.73     
      2500   611.48224     -6260.1256      0             -6128.6025     -23991.662      28927.372    
      2550   652.73023     -6265.5696      0             -6125.1746     -14421.661      28714.775    
      2600   652.57064     -6261.2815      0             -6120.9208     -3223.8604      27580.55     
      2650   663.70721     -6272.1389      0             -6129.3828     -2968.7556      27243.493    
      2700   642.19501     -6264.3457      0             -6126.2167     -1735.5176      27749.814    
      2750   665.79202     -6271.7637      0             -6128.5592      574.01578      27986.711    
      2800   683.54775     -6273.585       0             -6126.5615      4810.8689      27928.017    
      2850   684.16439     -6264.5308      0             -6117.3746      523.93882      27642.069    
      2900   652.77953     -6264.9664      0             -6124.5608     -11641.27       27961.455    
      2950   642.27303     -6257.1555      0             -6119.0097     -19175.493      28282.143    
      3000   663.67903     -6258.7161      0             -6115.9661     -22012.279      28649.919    
      3050   655.10279     -6246.9922      0             -6106.0868     -19891.292      28681.747    
      3100   665.87043     -6251.4537      0             -6108.2323     -25523.079      28706.98     
      3150   633.6353      -6251.9986      0             -6115.7107     -30258.915      28046.361    
      3200   667.88359     -6253.9463      0             -6110.292      -24668.028      27964.689    
      3250   696.6721      -6257.9059      0             -6108.0594     -12702.294      27993.598    
      3300   683.65584     -6254.1049      0             -6107.0581     -3056.3391      27389.547    
      3350   681.94604     -6261.8269      0             -6115.1479     -3813.5294      27275.418    
      3400   667.40724     -6259.2027      0             -6115.6509     -2968.0062      27480.171    
      3450   685.74721     -6263.1884      0             -6115.6918      1079.0318      27461.267    
      3500   694.93893     -6257.5175      0             -6108.0438      5149.9106      27731.764    
      3550   694.47605     -6261.0575      0             -6111.6834     -1756.8422      28133.17     
      3600   680.40683     -6259.2071      0             -6112.8591     -14347.884      28152.543    
      3650   659.19107     -6254.416       0             -6112.6314     -21926.56       28016.989    
      3700   678.52378     -6254.8313      0             -6108.8884     -21980.651      27880.31     
      3750   664.93125     -6242.8655      0             -6099.8461     -19491.728      27468.694    
      3800   662.13983     -6249.8909      0             -6107.472      -25296.499      27611.741    
      3850   659.95004     -6248.8757      0             -6106.9278     -27357.655      27997.38     
      3900   653.60924     -6249.1218      0             -6108.5378     -20605.652      27924.948    
      3950   701.81513     -6252.9739      0             -6102.0212     -11258.004      27561.181    
      4000   696.67071     -6255.0716      0             -6105.2254     -601.6254       27224.885    
      4050   698.77369     -6261.2112      0             -6110.9127     -2283.3266      27131.287    
      4100   689.35365     -6258.8506      0             -6110.5783     -3099.7928      27478.732    
      4150   693.15193     -6257.673       0             -6108.5837      1660.6893      27577.991    
      4200   723.2153      -6258.8862      0             -6103.3306      2159.8454      27264.34     
      4250   695.52712     -6249.5087      0             -6099.9085     -3096.8416      27289.227    
      4300   687.39096     -6251.1555      0             -6103.3054     -15055.199      27543.666    
      4350   673.82674     -6246.4485      0             -6101.5159     -21205.395      27629.051    
      4400   673.18245     -6242.9933      0             -6098.1992     -20383.554      27802.477    
      4450   706.88101     -6251.1455      0             -6099.1033     -23068.716      27687.62     
      4500   691.19511     -6246.1157      0             -6097.4473     -25387.234      28061.501    
      4550   654.25783     -6241.0684      0             -6100.3448     -24163.002      28398.971    
      4600   669.66301     -6248.1577      0             -6104.1207     -20162.745      27931.353    
      4650   709.09509     -6254.6459      0             -6102.1274     -10121.059      27328.842    
      4700   716.41308     -6259.4966      0             -6105.4041     -2720.4032      27399.045    
      4750   685.41769     -6259.2432      0             -6111.8175     -2600.7599      27535.656    
      4800   678.17712     -6258.988       0             -6113.1197     -1896.6101      27326.117    
      4850   692.9151      -6260.6645      0             -6111.6261      1971.9718      27077.482    
      4900   699.64025     -6256.445       0             -6105.9601      3402.0612      27117.076    
      4950   714.36727     -6255.6245      0             -6101.972      -3312.7704      27664.096    
      5000   681.97275     -6252.5339      0             -6105.8491     -14489.403      27926.774    
      5050   671.40903     -6248.4921      0             -6104.0795     -21643.091      28262.042    
      5100   699.07957     -6249.0542      0             -6098.6899     -20451.408      28502.943    
      5150   681.28128     -6239.9211      0             -6093.3851     -18960.659      28212.966    
      5200   693.06145     -6248.0342      0             -6098.9644     -24995.111      28287.482    
      5250   672.54953     -6245.3147      0             -6100.6567     -22888.621      28199.462    
      5300   692.56188     -6250.5527      0             -6101.5903     -20815.844      28741.024    
      5350   717.02194     -6255.7738      0             -6101.5504     -10307.544      28687.411    
      5400   726.42211     -6256.7053      0             -6100.4599     -2846.7396      27620.599    
      5450   699.51852     -6253.7237      0             -6103.265      -1622.9155      27702.528    
      5500   691.06252     -6253.5147      0             -6104.8748      143.31905      27642.454    
      5550   705.06047     -6258.419       0             -6106.7684      1069.456       27265.648    
      5600   703.87224     -6255.3938      0             -6103.9987      2022.3747      27090.008    
      5650   706.74179     -6251.7826      0             -6099.7703     -5512.6614      27182.583    
      5700   688.27818     -6250.2632      0             -6102.2223     -14488.905      27322.659    
      5750   680.78054     -6246.2324      0             -6099.8041     -18970.194      27624.855    
      5800   679.85857     -6242.3421      0             -6096.1121     -19781.887      27532.141    
      5850   705.56126     -6242.4494      0             -6090.691      -22094.002      27530.143    
      5900   691.38012     -6241.1103      0             -6092.4021     -24568.09       27584.784    
      5950   669.91856     -6240.157       0             -6096.065      -24253.681      27960.424    
      6000   706.74917     -6246.8326      0             -6094.8187     -18786.673      27621.725    
      6050   720.14244     -6251.8885      0             -6096.9939     -11108.31       27572.406    
      6100   689.62513     -6249.5798      0             -6101.2491     -2185.0656      27265.339    
      6150   723.66045     -6259.0978      0             -6103.4464     -4358.8353      27113.73     
      6200   682.39404     -6251.5948      0             -6104.8194     -1316.0871      27446.228    
      6250   696.22933     -6249.2207      0             -6099.4695      1522.8959      27606.616    
      6300   717.8232      -6255.7052      0             -6101.3094      363.82085      27603.317    
      6350   724.46531     -6253.3159      0             -6097.4914     -5899.0034      28300.403    
      6400   673.093       -6240.2714      0             -6095.4965     -12818.418      28531.375    
      6450   690.26528     -6241.336       0             -6092.8676     -18391.951      28320.62     
      6500   689.47052     -6239.1269      0             -6090.8294     -18908.199      27682.227    
      6550   711.75391     -6241.8273      0             -6088.7369     -21965.854      27620.929    
      6600   686.30394     -6237.8801      0             -6090.2638     -24206.092      28155.161    
      6650   693.68646     -6243.3924      0             -6094.1881     -24479.285      28529.471    
      6700   695.96758     -6241.6117      0             -6091.9168     -16748.744      28503.323    
      6750   728.3845      -6251.0937      0             -6094.4263     -10798.71       27618.662    
      6800   711.68786     -6244.8669      0             -6091.7907     -1947.2748      27352.49     
      6850   726.40357     -6249.6823      0             -6093.441      -1294.1863      27460.878    
      6900   702.5583      -6248.4844      0             -6097.3719      698.02729      27471.155    
      6950   711.23948     -6251.088       0             -6098.1083      3110.2937      27706.319    
      7000   732.03472     -6251.7028      0             -6094.2503      55.040404      27965.752    
      7050   730.07587     -6250.0613      0             -6093.0301     -5296.2819      27987.491    
      7100   706.26022     -6245.8279      0             -6093.9191     -13963.2        27799.184    
      7150   704.34621     -6239.917       0             -6088.42       -18874.618      28421.159    
      7200   720.06258     -6239.8297      0             -6084.9522     -20143.278      28961.391    
      7250   713.81684     -6237.3774      0             -6083.8433     -21954.765      28718.464    
      7300   705.59044     -6236.5588      0             -6084.7941     -23781.561      28676.93     
      7350   712.09883     -6238.5836      0             -6085.4191     -23613.73       28581.834    
      7400   727.75275     -6242.1064      0             -6085.5749     -18199.871      28003.69     
      7450   712.14221     -6237.1434      0             -6083.9695     -9316.967       27891.368    
      7500   730.73731     -6250.1243      0             -6092.9509     -5615.0515      27238.898    
      7550   756.25415     -6253.0619      0             -6090.4001     -2144.0845      27242.122    
      7600   701.96096     -6242.4145      0             -6091.4305      904.44262      27588.299    
      7650   716.10905     -6244.6968      0             -6090.6697      3234.2433      27697.886    
      7700   737.85668     -6250.1403      0             -6091.4355      528.23603      27708.966    
      7750   716.99942     -6241.3024      0             -6087.0838     -5929.137       28049.055    
      7800   719.15867     -6243.9644      0             -6089.2814     -12995.195      28524.344    
      7850   724.50329     -6244.9761      0             -6089.1435     -19610.417      28306.011    
      7900   705.51503     -6235.8655      0             -6084.1171     -20383.498      28452.207    
      7950   710.87688     -6237.7041      0             -6084.8024     -22875.443      27925.366    
      8000   702.25713     -6233.3411      0             -6082.2934     -22348.572      28258.42     
      8050   728.18183     -6243.4041      0             -6086.7803     -23909.959      28552.592    
      8100   735.60726     -6241.1615      0             -6082.9405     -16016.637      28825.861    
      8150   739.08824     -6245.8668      0             -6086.8972     -9810.8513      28413.957    
      8200   738.28995     -6249.599       0             -6090.8011     -5395.8459      28508.91     
      8250   717.12877     -6245.4024      0             -6091.156      -913.28121      28171.039    
      8300   739.18193     -6252.7038      0             -6093.714      -1556.267       27890.842    
      8350   738.09145     -6247.3879      0             -6088.6326      1483.8564      27607.977    
      8400   731.23537     -6247.5236      0             -6090.243      -215.36072      27442.07     
      8450   716.7809      -6241.4694      0             -6087.2978     -7328.6715      27583.877    
      8500   724.11937     -6245.1038      0             -6089.3538     -15621.894      27706.361    
      8550   722.70613     -6236.6252      0             -6081.1792     -17055.294      27889.426    
      8600   739.15899     -6240.084       0             -6081.0991     -22364.451      27972.152    
      8650   705.77478     -6229.1366      0             -6077.3323     -20165.27       27962.559    
      8700   702.85323     -6237.5462      0             -6086.3703     -25369.702      28211.884    
      8750   713.67137     -6236.2962      0             -6082.7935     -23096.075      28801.825    
      8800   722.35117     -6239.6404      0             -6084.2707     -17036.239      28635.343    
      8850   746.76765     -6244.3452      0             -6083.7237     -10268.454      27917.846    
      8900   723.92919     -6239.6509      0             -6083.9418     -5169.9303      27563.686    
      8950   741.86404     -6247.2788      0             -6087.712      -3108.651       27349.21     
      9000   728.55413     -6242.436       0             -6085.7321      537.23593      27356.371    
      9050   751.18061     -6248.5975      0             -6087.0269     -255.14289      27778.294    
      9100   728.94061     -6243.1008      0             -6086.3138     -358.6284       27767.093    
      9150   746.93776     -6243.6985      0             -6083.0405     -7797.4804      27208.507    
      9200   707.79131     -6234.6079      0             -6082.3698     -12179.609      27536.549    
      9250   725.60603     -6237.4365      0             -6081.3667     -17299.974      27755.59     
      9300   728.25973     -6237.3671      0             -6080.7265     -21281.197      27929.409    
      9350   718.74814     -6232.3789      0             -6077.7842     -24053.594      27709.131    
      9400   710.66036     -6233.4033      0             -6080.5482     -25116.597      27770.899    
      9450   725.68612     -6236.0505      0             -6079.9635     -20883.815      28315.402    
      9500   727.63091     -6240.8128      0             -6084.3075     -17012.374      28670.924    
      9550   735.45674     -6240.3275      0             -6082.1389     -9738.8884      28450.413    
      9600   745.40944     -6247.136       0             -6086.8067     -6778.1263      28601.979    
      9650   745.86906     -6248.6423      0             -6088.2142     -1656.9887      28377.671    
      9700   757.5263      -6249.5532      0             -6086.6177      1574.7229      28292.273    
      9750   743.10461     -6251.4662      0             -6091.6327      1459.0271      28270.657    
      9800   728.35848     -6247.4064      0             -6090.7446     -800.78395      27825.322    
      9850   739.10657     -6248.4975      0             -6089.5239     -7446.5233      27697.584    
      9900   733.23597     -6243.9469      0             -6086.236      -12432.059      28146.993    
      9950   722.50132     -6242.6301      0             -6087.2281     -17116.048      28523.154    
     10000   731.81244     -6240.7677      0             -6083.3629     -20796.051      28586.423    
     10050   704.9809      -6233.7564      0             -6082.1228     -22824.882      28565.327    
     10100   698.00495     -6236.0778      0             -6085.9447     -23238.942      28974.094    
     10150   706.09066     -6239.4391      0             -6087.5668     -21088.529      28664.71     
     10200   718.8766      -6238.8156      0             -6084.1932     -15467.808      28119.705    
     10250   714.91147     -6244.3954      0             -6090.6259     -10348.811      27747.994    
     10300   732.20161     -6249.3608      0             -6091.8723     -5713.0541      27234.78     
     10350   717.6091      -6247.6833      0             -6093.3336     -3837.5872      27305.65     
     10400   738.95225     -6249.9977      0             -6091.0573      2546.2601      27036.993    
     10450   732.83682     -6246.1806      0             -6088.5555      3000.3234      27332.437    
     10500   732.2272      -6249.7782      0             -6092.2843     -2796.0507      27097.628    
     10550   727.18597     -6246.9448      0             -6090.5352     -8307.5544      27294.432    
     10600   719.65425     -6243.5979      0             -6088.8083     -15044.844      27482.88     
     10650   738.46831     -6239.5565      0             -6080.7202     -17296.028      27681.779    
     10700   721.25203     -6240.0005      0             -6084.8672     -19727.902      27844.41     
     10750   709.18177     -6235.2693      0             -6082.7322     -23803.983      27880.182    
     10800   701.368       -6235.6491      0             -6084.7927     -25375.153      28204.757    
     10850   724.79991     -6243.9525      0             -6088.0561     -23185.98       28147.477    
     10900   722.14563     -6240.7884      0             -6085.4629     -16222.42       27749.88     
     10950   719.23981     -6240.5796      0             -6085.8791     -8240.8746      27778.237    
     11000   713.40474     -6242.8338      0             -6089.3884     -3252.5343      27860.109    
     11050   730.02779     -6249.0937      0             -6092.0729     -2293.8206      28260.097    
     11100   717.07061     -6246.8019      0             -6092.568       1936.2357      28265.041    
     11150   734.30436     -6250.0583      0             -6092.1176      2056.1058      27649.044    
     11200   724.30401     -6244.7769      0             -6088.9872     -1624.2737      27490.169    
     11250   718.7183      -6252.6562      0             -6098.0679     -8905.8461      28145.848    
     11300   715.53489     -6246.6783      0             -6092.7747     -15825.72       27618.646    
     11350   718.67026     -6245.4746      0             -6090.8967     -18894.702      27398.051    
     11400   716.48065     -6243.2615      0             -6089.1545     -20358.906      27732.729    
     11450   707.86303     -6238.3755      0             -6086.1221     -23046.221      27799.115    
     11500   678.73361     -6232.5967      0             -6086.6086     -22553.52       27978.556    
     11550   712.35915     -6241.3805      0             -6088.16       -19703.724      28525.276    
     11600   723.60997     -6245.6836      0             -6090.0431     -15335.911      27843.053    
     11650   716.82841     -6244.2114      0             -6090.0296     -9879.5133      27309.633    
     11700   724.44391     -6248.3683      0             -6092.5484     -3763.7138      27358.436    
     11750   711.89279     -6247.6947      0             -6094.5744     -3441.8611      27380.978    
     11800   700.27019     -6247.6053      0             -6096.9849      60.83637       27186.485    
     11850   711.7539      -6246.4591      0             -6093.3687      58.975474      27248.605    
     11900   733.55811     -6251.7074      0             -6093.9272     -5641.7276      27047.449    
     11950   723.7494      -6244.247       0             -6088.5766     -8173.3079      27437.778    
     12000   711.31765     -6245.644       0             -6092.6475     -14195.822      27456.314    
     12050   717.92638     -6242.8266      0             -6088.4086     -19076.766      27630.307    
     12100   692.40743     -6234.8841      0             -6085.9549     -18732.382      27780.169    
     12150   723.81697     -6242.0495      0             -6086.3646     -23077.485      28275.659    
     12200   700.07707     -6236.8878      0             -6086.309      -22382.721      28020.395    
     12250   726.36991     -6243.5339      0             -6087.2998     -19919.488      27633.494    
     12300   746.22709     -6241.8038      0             -6081.2986     -14672.534      27646.135    
     12350   718.55245     -6246.5568      0             -6092.0042     -12152.233      27481.762    
     12400   724.96375     -6244.2262      0             -6088.2945     -4504.961       27226.99     
     12450   735.89953     -6252.6738      0             -6094.39       -3762.8691      27326.352    
     12500   711.3796      -6244.5194      0             -6091.5096     -1254.6626      27511.954    
     12550   730.91398     -6251.1331      0             -6093.9216     -3217.2781      27561.971    
     12600   731.78749     -6248.6683      0             -6091.269      -5188.4974      27322.315    
     12650   730.86034     -6245.1606      0             -6087.9607     -9047.3224      27598.776    
     12700   696.19877     -6238.3209      0             -6088.5763     -12943.55       27467.512    
     12750   718.01622     -6240.8426      0             -6086.4053     -18166.937      27907.395    
     12800   700.08916     -6238.2335      0             -6087.6521     -22058.352      27890.471    
     12850   714.13189     -6238.015       0             -6084.4132     -20819.592      28607.295    
     12900   716.52737     -6239.3065      0             -6085.1895     -20998.307      28637.245    
     12950   710.2889      -6240.0614      0             -6087.2862     -18361.882      28150.211    
     13000   726.8612      -6244.4166      0             -6088.0769     -17300.319      27591.779    
     13050   725.32315     -6244.8562      0             -6088.8473     -8873.8589      27322.999    
     13100   738.0993      -6246.6487      0             -6087.8918     -4454.5514      27489.397    
     13150   709.99486     -6241.0167      0             -6088.3047     -410.6785       27897.604    
     13200   741.34678     -6247.1055      0             -6087.65       -1495.1454      28191.696    
     13250   739.05432     -6247.5511      0             -6088.5887     -2975.9188      27713.73     
     13300   732.70248     -6246.2226      0             -6088.6265     -5196.4536      28088.642    
     13350   718.87742     -6238.1366      0             -6083.5141     -6956.8505      27895.77     
     13400   725.89648     -6243.5125      0             -6087.3802     -14826.656      28382.13     
     13450   731.8802      -6240.3195      0             -6082.9002     -19633.718      28716.286    
     13500   688.54231     -6231.4124      0             -6083.3146     -19237.416      28699.078    
     13550   723.6361      -6236.9244      0             -6081.2783     -22340.529      28128.313    
     13600   718.21726     -6234.3191      0             -6079.8385     -21186.203      28332.457    
     13650   714.14327     -6235.1518      0             -6081.5475     -16134.705      28520.129    
     13700   729.96298     -6239.4892      0             -6082.4823     -11767.034      28959.483    
     13750   724.87972     -6245.2274      0             -6089.3138     -12225.155      29141.204    
     13800   745.36853     -6250.92        0             -6090.5995     -5793.7299      28277.97     
     13850   743.33038     -6248.5454      0             -6088.6633     -2630.8207      27998.336    
     13900   730.31669     -6244.2072      0             -6087.1242     -489.26452      27772.068    
     13950   712.32107     -6244.4002      0             -6091.1879     -53.158411      27402.395    
     14000   742.48431     -6246.7098      0             -6087.0097     -6503.0174      27176.604    
     14050   733.19386     -6247.6718      0             -6089.9699     -11951.046      27303.511    
     14100   707.96964     -6240.0469      0             -6087.7705     -12736.956      27450.048    
     14150   730.1499      -6245.7597      0             -6088.7126     -20070.12       27995.706    
     14200   713.88378     -6234.9958      0             -6081.4473     -19831.198      28389.574    
     14250   716.41429     -6241.4625      0             -6087.3698     -21281.681      28774.812    
     14300   728.51037     -6238.6903      0             -6081.9958     -20445.488      28495.256    
     14350   717.97195     -6238.9741      0             -6084.5463     -17590.366      28399.119    
     14400   731.67576     -6240.8181      0             -6083.4428     -11302.477      28111.439    
     14450   724.97999     -6244.0514      0             -6088.1163     -10351.96       28026.386    
     14500   722.5557      -6242.366       0             -6086.9523     -4865.3362      28236.049    
     14550   731.68825     -6247.7099      0             -6090.3319     -2302.1901      28048.186    
     14600   733.72732     -6247.1068      0             -6089.2902     -1501.3276      27993.184    
     14650   732.23894     -6248.4036      0             -6090.9071     -3400.9862      27743.182    
     14700   722.74404     -6246.4077      0             -6090.9535     -7405.9723      27817.045    
     14750   709.44102     -6245.1374      0             -6092.5445     -11587.891      27798.345    
     14800   727.22452     -6244.1453      0             -6087.7273     -13450.699      28289.751    
     14850   717.98764     -6239.9934      0             -6085.5623     -17409.221      28196.128    
     14900   722.40614     -6236.4927      0             -6081.1111     -20031.858      28228.172    
     14950   711.45603     -6238.3087      0             -6085.2824     -20155.5        28084.913    
     15000   709.55714     -6234.2832      0             -6081.6653     -20116.112      28445.242    
     15050   750.405       -6244.8694      0             -6083.4657     -16933.047      28585.851    
     15100   738.32232     -6240.2968      0             -6081.4919     -12775.343      27861.548    
     15150   735.04246     -6240.254       0             -6082.1545     -7681.407       27366.551    
     15200   733.52654     -6243.4046      0             -6085.6312     -5380.0774      27473.184    
     15250   730.91401     -6244.556       0             -6087.3445     -4585.5438      27453.43     
     15300   724.18631     -6240.4875      0             -6084.7231     -3234.8016      27556.476    
     15350   735.00706     -6246.0835      0             -6087.9916     -5975.1755      27345.896    
     15400   746.80145     -6245.2031      0             -6084.5744     -8023.3992      27239.557    
     15450   711.37853     -6240.1482      0             -6087.1386     -11869.663      27396.362    
     15500   711.46525     -6240.574       0             -6087.5458     -15421.566      27525.375    
     15550   705.36211     -6241.3612      0             -6089.6456     -18666.843      28093.58     
     15600   701.26621     -6236.2277      0             -6085.3931     -18050.239      28046.796    
     15650   708.8562      -6239.847       0             -6087.3799     -20411.985      27881.532    
     15700   715.71901     -6237.2095      0             -6083.2663     -16384.138      27947.868    
     15750   725.75366     -6242.8438      0             -6086.7423     -14535.756      28086.068    
     15800   706.19005     -6238.5926      0             -6086.6989     -11123.342      27545.273    
     15850   747.16901     -6247.5374      0             -6086.8297     -7561.6144      27865.196    
     15900   716.5396      -6245.8902      0             -6091.7705     -4642.3803      27624.044    
     15950   721.47799     -6247.936       0             -6092.7541     -5477.3396      27420.914    
     16000   726.77028     -6250.6676      0             -6094.3474     -6007.9591      27433.685    
     16050   726.40486     -6247.3462      0             -6091.1046     -6412.0128      27710.968    
     16100   708.17261     -6248.1784      0             -6095.8583     -9007.252       27603.353    
     16150   711.22348     -6244.9418      0             -6091.9655     -12413.828      27598.565    
     16200   698.55613     -6241.405       0             -6091.1533     -16212.668      27737.659    
     16250   695.68175     -6243.0305      0             -6093.3971     -18625.553      27699.859    
     16300   715.85609     -6245.0601      0             -6091.0874     -19003.95       27624.777    
     16350   717.01024     -6241.5998      0             -6087.3789     -15745.687      27500.669    
     16400   718.41104     -6247.4276      0             -6092.9054     -16528.112      27670.066    
     16450   707.98715     -6243.3849      0             -6091.1047     -14479.733      27360.635    
     16500   723.99367     -6250.3213      0             -6094.5983     -11757.501      27698.125    
     16550   710.7399      -6243.1059      0             -6090.2337     -7283.0225      27666.648    
     16600   731.85389     -6247.7552      0             -6090.3415     -5346.8099      27387.342    
     16650   721.94805     -6239.6843      0             -6084.4013     -3683.4794      27226.168    
     16700   719.70963     -6246.0173      0             -6091.2157     -7470.4684      27218.951    
     16750   735.83978     -6247.8786      0             -6089.6076     -8429.6404      27512.932    
     16800   739.61246     -6245.1315      0             -6086.049      -10194.41       28636.026    
     16850   711.1432      -6235.9707      0             -6083.0117     -11885.618      28273.556    
     16900   727.02431     -6240.1979      0             -6083.823      -16241.437      27673.69     
     16950   717.98986     -6238.6708      0             -6084.2391     -18684.517      28101.323    
     17000   703.36418     -6234.8584      0             -6083.5726     -16750.118      28712.066    
     17050   705.91654     -6237.7         0             -6085.8652     -16335.825      28471.4      
     17100   736.20827     -6243.1449      0             -6084.7947     -17318.515      27833.323    
     17150   716.54105     -6238.9681      0             -6084.8481     -12822.568      27373.781    
     17200   715.43416     -6239.6643      0             -6085.7824     -9762.5126      27510.206    
     17250   739.39041     -6247.7622      0             -6088.7276     -8387.6168      27707.25     
     17300   734.6278      -6244.7915      0             -6086.7812     -5717.9799      27499.043    
     17350   708.95114     -6240.6969      0             -6088.2094     -3799.4148      27387.065    
     17400   735.8252      -6246.831       0             -6088.5632     -7117.6936      27460.492    
     17450   717.34504     -6240.8185      0             -6086.5256     -7362.0848      27750.054    
     17500   716.7165      -6240.3807      0             -6086.2229     -11277.518      27646.478    
     17550   721.42534     -6241.8822      0             -6086.7117     -14363.084      28001.333    
     17600   720.9552      -6239.8127      0             -6084.7432     -15866.435      27892.984    
     17650   696.9791      -6237.4564      0             -6087.544      -17349.711      27622.964    
     17700   718.93228     -6240.6747      0             -6086.0404     -18260.894      27673.419    
     17750   699.55064     -6240.1103      0             -6089.6447     -15710.583      27959.654    
     17800   724.23758     -6247.7112      0             -6091.9358     -17197.464      27787.001    
     17850   720.2955      -6245.7842      0             -6090.8566     -11355.146      27582.054    
     17900   728.99352     -6250.5081      0             -6093.7097     -9585.5481      27476.154    
     17950   702.00497     -6246.382       0             -6095.3885     -6149.0257      27739.448    
     18000   717.07038     -6247.8762      0             -6093.6423     -4542.5568      27784.623    
     18050   720.94897     -6251.0748      0             -6096.0067     -5517.8939      27544.61     
     18100   690.87457     -6243.566       0             -6094.9665     -4923.6159      27417.191    
     18150   711.12502     -6249.7278      0             -6096.7727     -7056.5865      27351.226    
     18200   715.77666     -6249.38        0             -6095.4244     -13129.133      27469.227    
     18250   702.23385     -6245.292       0             -6094.2493     -14153.344      27585.162    
     18300   700.22679     -6240.639       0             -6090.028      -16001.708      28506.264    
     18350   712.7862      -6244.9546      0             -6091.6422     -17960.415      28663.509    
     18400   717.50832     -6242.9078      0             -6088.5798     -18530.192      28214.663    
     18450   725.33398     -6247.4968      0             -6091.4856     -17749.033      27793.304    
     18500   710.8041      -6241.0555      0             -6088.1695     -14288.155      27613.299    
     18550   717.62304     -6247.5606      0             -6093.2079     -12191.367      28343.593    
     18600   715.46537     -6245.997       0             -6092.1083     -6922.331       28559.445    
     18650   727.99493     -6249.6425      0             -6093.0588     -6548.2325      27643.739    
     18700   705.80824     -6244.5728      0             -6092.7613     -4486.2726      27935.664    
     18750   713.64518     -6250.0357      0             -6096.5385     -6858.3662      28055.753    
     18800   733.27023     -6251.7609      0             -6094.0427     -6911.3086      28115.69     
     18850   705.65016     -6248.579       0             -6096.8015     -7447.8281      27616.725    
     18900   719.60773     -6244.3783      0             -6089.5986     -11117.814      28238.131    
     18950   705.24951     -6243.3769      0             -6091.6855     -15894.327      28251.751    
     19000   708.99625     -6242.1402      0             -6089.643      -15676.785      28274.523    
     19050   697.66938     -6241.0326      0             -6090.9717     -17426.566      28592.991    
     19100   715.9087      -6244.8824      0             -6090.8984     -16763.945      28488.072    
     19150   695.93601     -6241.4787      0             -6091.7906     -16191.764      27890.526    
     19200   712.85914     -6243.7121      0             -6090.384      -13824.869      27903.551    
     19250   734.52916     -6250.7521      0             -6092.7631     -13153.551      27631.122    
     19300   707.15944     -6240.257       0             -6088.1549     -6141.2943      27768.127    
     19350   722.6454      -6247.2513      0             -6091.8183     -7190.3097      27974.741    
     19400   714.48612     -6242.251       0             -6088.573      -4477.79        27671.099    
     19450   732.94147     -6252.2858      0             -6094.6382     -7165.2189      27829.088    
     19500   721.43456     -6244.9946      0             -6089.822      -6807.1384      28385.851    
     19550   720.24375     -6242.7194      0             -6087.803      -9665.2907      28383.863    
     19600   710.99015     -6243.5188      0             -6090.5927     -12581.947      27972.824    
     19650   704.18141     -6238.5078      0             -6087.0462     -15498.631      27979.518    
     19700   706.96667     -6244.5454      0             -6092.4847     -17675.986      28261.052    
     19750   690.19716     -6238.2098      0             -6089.7561     -15856.637      28076.448    
     19800   696.19967     -6238.3645      0             -6088.6197     -15321.144      28336.191    
     19850   713.79066     -6247.3768      0             -6093.8484     -14810.026      28292.693    
     19900   721.9054      -6249.8126      0             -6094.5388     -13727.248      27773.147    
     19950   696.08392     -6244.8779      0             -6095.1579     -9229.2904      27908.583    
     20000   714.89441     -6248.5506      0             -6094.7848     -8734.4517      28056.041    
     20050   714.02008     -6247.6237      0             -6094.0459     -5620.0892      28337.622    
     20100   715.65262     -6248.4569      0             -6094.528      -5943.3899      28359.337    
     20150   721.49533     -6250.9698      0             -6095.7842     -7263.8988      28057.194    
     20200   693.72779     -6244.6744      0             -6095.4613     -8263.1471      28123.318    
     20250   693.24233     -6244.195       0             -6095.0863     -11299.958      28170.842    
     20300   694.6857      -6246.6046      0             -6097.1854     -14889.781      27818.355    
     20350   706.11826     -6248.249       0             -6096.3708     -17078.059      27912.288    
     20400   681.05691     -6239.0331      0             -6092.5453     -15582.498      28134.467    
     20450   709.58008     -6243.0894      0             -6090.4666     -15689.749      28603.188    
     20500   731.54029     -6246.8613      0             -6089.5151     -17375.017      28373.971    
     20550   715.55934     -6242.473       0             -6088.5641     -13419.054      28009.949    
     20600   717.38691     -6242.5373      0             -6088.2354     -11177.856      28030.689    
     20650   729.53596     -6241.5902      0             -6084.6752     -7595.6629      28479.404    
     20700   729.38715     -6246.2772      0             -6089.3942     -8799.6173      28398.246    
     20750   731.22285     -6246.3132      0             -6089.0353     -7519.988       28181.85     
     20800   747.31664     -6246.8024      0             -6086.0629     -7496.3182      28168.009    
     20850   701.95049     -6241.9025      0             -6090.9208     -7736.0156      28051.588    
     20900   721.1171      -6245.6497      0             -6090.5454     -11063.098      28521.733    
     20950   712.25121     -6242.309       0             -6089.1117     -14040.628      28001.651    
     21000   728.94172     -6247.0668      0             -6090.2796     -14757.109      28173.559    
     21050   719.58519     -6239.9927      0             -6085.2179     -15727.436      28054.91     
     21100   735.63817     -6244.1779      0             -6085.9503     -15577.688      27807.128    
     21150   715.3471      -6239.3242      0             -6085.461      -14703.685      27569.8      
     21200   711.74106     -6240.8615      0             -6087.7739     -15057.015      27878.338    
     21250   730.11287     -6247.372       0             -6090.3328     -13720.373      27992.18     
     21300   729.71141     -6248.5327      0             -6091.5799     -9483.4455      28056.669    
     21350   710.74573     -6242.5824      0             -6089.7089     -6157.8329      28103.609    
     21400   723.32205     -6248.4015      0             -6092.823      -8707.9719      28248.04     
     21450   725.7858      -6248.8596      0             -6092.7512     -6803.3327      28320.625    
     21500   726.63229     -6250.8387      0             -6094.5482     -8796.8203      28153.017    
     21550   712.29146     -6246.0351      0             -6092.8292     -8617.0717      28085.637    
     21600   719.07349     -6245.7511      0             -6091.0864     -10646.184      28017.3      
     21650   718.35577     -6250.3159      0             -6095.8056     -15047.31       28150.571    
     21700   703.39177     -6243.8744      0             -6092.5827     -16197.297      28107.402    
     21750   706.45726     -6241.5723      0             -6089.6212     -12463.043      27883.818    
     21800   701.67891     -6244.6851      0             -6093.7618     -17150.572      27840.738    
     21850   712.85055     -6245.0528      0             -6091.7266     -15045.603      27789.463    
     21900   684.47994     -6245.1373      0             -6097.9133     -13588.411      28187.691    
     21950   711.09894     -6251.729       0             -6098.7796     -13110.838      28138.073    
     22000   688.63848     -6247.6668      0             -6099.5483     -7945.8207      28016.097    
     22050   687.10932     -6249.226       0             -6101.4364     -7572.5174      27707.886    
     22100   707.82231     -6254.4681      0             -6102.2234     -8930.7206      27307.167    
     22150   702.7738      -6253.4131      0             -6102.2543     -7676.8613      27454.523    
     22200   698.33675     -6252.1011      0             -6101.8966     -6758.6929      27485.469    
     22250   689.29485     -6248.6582      0             -6100.3986     -8537.4061      27650.707    
     22300   684.01319     -6249.5738      0             -6102.4502     -10217.028      27834.141    
     22350   697.78768     -6249.5787      0             -6099.4923     -14289.754      28089.069    
     22400   687.3062      -6243.5912      0             -6095.7593     -14635.836      28265.249    
     22450   703.43107     -6246.9286      0             -6095.6284     -15277.598      28538.813    
     22500   709.90147     -6253.0108      0             -6100.3189     -16437.219      28096.041    
     22550   684.9008      -6244.444       0             -6097.1294     -14370.404      27733.521    
     22600   692.95421     -6251.456       0             -6102.4093     -15744.672      27591.358    
     22650   706.63608     -6245.7741      0             -6093.7845     -11311.966      28110.2      
     22700   709.73227     -6251.7794      0             -6099.1239     -9608.3863      28711.907    
     22750   693.60075     -6246.5679      0             -6097.3821     -5599.2581      28832.607    
     22800   727.0969      -6254.7063      0             -6098.3158     -8481.5652      28395.064    
     22850   698.79782     -6250.2743      0             -6099.9706     -7945.3704      27532.416    
     22900   702.70969     -6248.1382      0             -6096.9932     -7682.8301      27367.332    
     22950   698.37195     -6248.2269      0             -6098.0149     -8422.4982      27416.859    
     23000   683.54103     -6244.1734      0             -6097.1513     -11150.142      27609.417    
     23050   695.25122     -6247.5543      0             -6098.0135     -16376.38       27564.28     
     23100   686.97626     -6239.1206      0             -6091.3596     -15202.329      27616.089    
     23150   701.41215     -6246.4715      0             -6095.6056     -16047.816      27525.903    
     23200   697.97042     -6241.87        0             -6091.7443     -15649.837      27588.848    
     23250   695.49956     -6245.048       0             -6095.4538     -16117.034      27628.56     
     23300   703.52257     -6245.7522      0             -6094.4323     -14094.185      27647.343    
     23350   718.323       -6248.9208      0             -6094.4175     -13361.633      27802.507    
     23400   720.95299     -6249.5539      0             -6094.4849     -7674.595       28056.261    
     23450   705.97725     -6248.603       0             -6096.7551     -6931.6743      27951.766    
     23500   703.05724     -6246.2045      0             -6094.9848     -6462.4123      27640.709    
     23550   715.05046     -6254.4569      0             -6100.6575     -9218.4241      27464.274    
     23600   706.81213     -6243.9783      0             -6091.9509     -6671.3711      27851.696    
     23650   711.70403     -6250.7229      0             -6097.6433     -10803.941      28681.111    
     23700   715.92577     -6251.7896      0             -6097.8019     -13917.805      28674.321    
     23750   696.34577     -6243.4017      0             -6093.6254     -14461.659      27935.693    
     23800   690.38579     -6242.2999      0             -6093.8056     -14817.832      27561.362    
     23850   698.36164     -6242.9535      0             -6092.7436     -14786.952      27876.555    
     23900   699.07475     -6244.3136      0             -6093.9504     -14306.32       28098.824    
     23950   680.61493     -6240.8846      0             -6094.4919     -13518.019      28107.133    
     24000   715.06191     -6247.3428      0             -6093.5409     -13124.934      27734.381    
     24050   722.0916      -6247.5727      0             -6092.2588     -8692.4983      27605.505    
     24100   711.5761      -6244.9372      0             -6091.8851     -7111.8576      27428.976    
     24150   719.00662     -6252.316       0             -6097.6657     -7424.389       27821.928    
     24200   708.45766     -6245.001       0             -6092.6196     -7332.0692      27966.694    
     24250   708.69752     -6250.7287      0             -6098.2957     -8656.4048      27880.68     
     24300   719.9357      -6246.6773      0             -6091.8271     -7202.9266      27938.238    
     24350   717.76405     -6248.1521      0             -6093.7691     -10091.511      28217.573    
     24400   729.60713     -6253.0503      0             -6096.1199     -14627.342      28127.432    
     24450   688.96525     -6241.8859      0             -6093.6972     -14349.449      27813.48     
     24500   708.0887      -6246.1865      0             -6093.8845     -16591.289      27834.667    
     24550   713.37815     -6248.2442      0             -6094.8045     -16488.417      27640.986    
     24600   686.53339     -6241.2572      0             -6093.5915     -15467.033      27468.278    
     24650   695.4669      -6245.9132      0             -6096.326      -15816.862      27745.499    
     24700   713.15336     -6249.406       0             -6096.0147     -12899.166      28276.882    
     24750   711.43212     -6246.9619      0             -6093.9408     -10130.611      28284.298    
     24800   695.78486     -6249.2236      0             -6099.568      -7611.381       28400.771    
     24850   713.3139      -6246.8242      0             -6093.3983     -7305.2862      28658.127    
     24900   706.10793     -6245.13        0             -6093.2541     -4964.3219      28225.997    
     24950   713.01376     -6245.0445      0             -6091.6832     -6249.0114      27878.129    
     25000   703.70002     -6241.7064      0             -6090.3483     -6448.3605      27917.522    
     25050   711.41617     -6246.8584      0             -6093.8407     -11909.368      28311.035    
     25100   700.24639     -6240.6369      0             -6090.0217     -13255.172      27991.844    
     25150   712.63336     -6245.2402      0             -6091.9607     -16505.943      28073.978    
     25200   712.23775     -6242.175       0             -6088.9806     -15597.049      27787.498    
     25250   695.46497     -6237.0444      0             -6087.4576     -17914.215      27896.462    
     25300   705.81249     -6239.6693      0             -6087.8569     -15249.818      28292.482    
     25350   730.31785     -6246.6015      0             -6089.5182     -16339.154      28554.036    
     25400   737.70214     -6245.9943      0             -6087.3228     -13764.093      28413.599    
     25450   728.19367     -6246.3256      0             -6089.6993     -9781.5429      28017.45     
     25500   732.79826     -6248.2724      0             -6090.6556     -9304.3673      28023.202    
     25550   710.64329     -6243.4825      0             -6090.631      -7501.3067      27391.097    
     25600   710.18097     -6246.4347      0             -6093.6826     -5320.1628      27641.631    
     25650   704.2811      -6247.845       0             -6096.3619     -7179.8502      28329.159    
     25700   721.21762     -6244.5208      0             -6089.3949     -6733.6537      27852.299    
     25750   706.51258     -6243.9012      0             -6091.9382     -9600.0294      27763.416    
     25800   710.38035     -6244.9855      0             -6092.1906     -13292.175      27856.038    
     25850   726.11051     -6248.4254      0             -6092.2471     -13875.296      28034.608    
     25900   698.27354     -6241.2836      0             -6091.0928     -13563.579      27960.378    
     25950   710.18222     -6245.6872      0             -6092.9349     -17734.059      28035.621    
     26000   688.5558      -6241.0843      0             -6092.9836     -15070.328      28482.423    
     26050   715.05074     -6248.9519      0             -6095.1525     -14499.762      28131.995    
     26100   697.0369      -6244.0405      0             -6094.1156     -12083.474      28051.614    
     26150   704.93274     -6246.6055      0             -6094.9823     -11154.085      27583.744    
     26200   686.38689     -6245.8014      0             -6098.1672     -9195.0507      28260.131    
     26250   736.34533     -6253.6248      0             -6095.2451     -8921.3004      28350.408    
     26300   724.07234     -6246.5443      0             -6090.8044     -4582.4017      27684.247    
     26350   709.19637     -6246.139       0             -6093.5988     -6123.0878      27345.997    
     26400   702.14221     -6242.5587      0             -6091.5357     -8107.6337      27327.179    
     26450   702.50345     -6244.5505      0             -6093.4499     -10946.366      27342.794    
     26500   712.58027     -6245.6212      0             -6092.3531     -12015.859      27492.868    
     26550   705.00831     -6242.7944      0             -6091.155      -14704.952      27483.369    
     26600   705.7717      -6247.261       0             -6095.4574     -17016.536      27621.02     
     26650   700.84378     -6241.4507      0             -6090.707      -18661.607      27575.814    
     26700   713.34199     -6243.3071      0             -6089.8752     -16644.834      28115.702    
     26750   724.18628     -6243.0736      0             -6087.3092     -13425.666      28247.261    
     26800   714.72895     -6242.1678      0             -6088.4376     -10587.579      27980.705    
     26850   714.79945     -6244.8893      0             -6091.1439     -10319.66       27864.607    
     26900   709.14297     -6243.532       0             -6091.0032     -9469.5982      28097.082    
     26950   709.26424     -6243.4468      0             -6090.892      -6329.3557      27560.599    
     27000   712.62843     -6245.2125      0             -6091.9341     -7605.1332      27502.152    
     27050   719.70641     -6243.9128      0             -6089.112      -7222.1022      27654.57     
     27100   713.80001     -6242.7324      0             -6089.2019     -8295.4786      27529.72     
     27150   729.34779     -6245.5156      0             -6088.641      -11612.904      27791.156    
     27200   733.5635      -6242.136       0             -6084.3546     -12364.688      28005.842    
     27250   723.27621     -6240.7789      0             -6085.2102     -13281.156      28203.623    
     27300   721.49517     -6237.1383      0             -6081.9527     -14446.49       28251.892    
     27350   714.07104     -6239.2044      0             -6085.6156     -17749.133      28268.841    
     27400   724.50327     -6238.8176      0             -6082.9851     -17136.348      28123.359    
     27450   724.67341     -6238.2338      0             -6082.3646     -13667.179      28198.765    
     27500   742.04208     -6238.7264      0             -6079.1213     -12282.806      27828.674    
     27550   722.86555     -6237.0748      0             -6081.5944     -9969.117       27617.953    
     27600   736.28423     -6242.9582      0             -6084.5916     -10197.034      27585.122    
     27650   741.68961     -6245.389       0             -6085.8598     -10745.137      27234.634    
     27700   735.10554     -6242.3456      0             -6084.2326     -7148.9587      27299.242    
     27750   724.14118     -6239.6792      0             -6083.9245     -7621.5904      27465.556    
     27800   741.30579     -6244.4105      0             -6084.9638     -9855.2722      27606.403    
     27850   712.15748     -6236.0456      0             -6082.8685     -10621.209      27580.429    
     27900   726.76208     -6237.658       0             -6081.3396     -13172.429      27599.733    
     27950   716.22668     -6234.7606      0             -6080.7082     -12752.879      27531.056    
     28000   706.68044     -6234.3842      0             -6082.3851     -14659.379      27803.12     
     28050   724.35544     -6241.7162      0             -6085.9154     -17205.608      27895.576    
     28100   708.17474     -6233.6129      0             -6081.2923     -13494.676      27663.853    
     28150   706.61971     -6238.0724      0             -6086.0863     -13981.291      27687.801    
     28200   730.32795     -6244.6947      0             -6087.6093     -12719.213      27832.575    
     28250   712.31691     -6242.3939      0             -6089.1825     -9107.8948      27778.261    
     28300   719.75924     -6241.5644      0             -6086.7522     -9199.8153      28641.761    
     28350   735.08135     -6246.7938      0             -6088.6859     -6947.0747      28569.953    
     28400   737.34915     -6247.5776      0             -6088.982      -6806.5761      28530.739    
     28450   726.31299     -6247.0588      0             -6090.837      -9668.8852      28322.383    
     28500   714.93397     -6240.2606      0             -6086.4863     -8106.3073      28473.389    
     28550   709.62603     -6241.4277      0             -6088.7951     -11630.406      28615.258    
     28600   712.21314     -6239.7669      0             -6086.5778     -13240.905      28008.496    
     28650   721.51459     -6236.4546      0             -6081.2649     -12543.527      27995.583    
     28700   730.94104     -6244.0675      0             -6086.8502     -15455.463      27604.423    
     28750   724.30694     -6240.8841      0             -6085.0938     -16702.05       28141.891    
     28800   731.6443      -6243.3689      0             -6086.0003     -13936.746      28062.438    
     28850   718.28619     -6235.8642      0             -6081.3688     -11695.839      27922.381    
     28900   715.29869     -6239.1738      0             -6085.321      -9633.9215      27481.5      
     28950   717.55106     -6241.5465      0             -6087.2092     -7886.4851      27717.389    
     29000   723.21443     -6242.4941      0             -6086.9387     -8786.8869      27922.659    
     29050   711.44877     -6241.976       0             -6088.9512     -7579.4929      27848.486    
     29100   716.55508     -6239.152       0             -6085.0289     -4977.098       27570.484    
     29150   728.01778     -6242.0149      0             -6085.4263     -8777.3023      27637.131    
     29200   711.20321     -6238.7159      0             -6085.744      -9359.4637      27699.896    
     29250   715.75769     -6241.4716      0             -6087.5201     -12577.764      27714.71     
     29300   721.72461     -6239.7855      0             -6084.5505     -14045.908      27676.155    
     29350   709.24693     -6236.4323      0             -6083.8812     -15535.948      27599.561    
     29400   725.77498     -6238.3988      0             -6082.2927     -14651.488      27746.473    
     29450   722.11447     -6240.3966      0             -6085.0778     -16833.564      28188.749    
     29500   727.16349     -6240.5921      0             -6084.1873     -14009.051      28557.577    
     29550   734.11312     -6237.3262      0             -6079.4267     -12000.564      27737.067    
     29600   725.81626     -6238.2743      0             -6082.1593     -11024.416      27950.792    
     29650   733.46454     -6239.9687      0             -6082.2086     -7859.885       27697.049    
     29700   739.13053     -6243.6424      0             -6084.6637     -9408.4241      27522.401    
     29750   716.61142     -6237.9092      0             -6083.7741     -7313.7925      27604.659    
     29800   736.22984     -6243.6512      0             -6085.2964     -9723.3314      28139.911    
     29850   723.86352     -6242.6504      0             -6086.9554     -10030.172      28475.708    
     29900   718.3476      -6241.37        0             -6086.8615     -12352.447      28415.647    
     29950   720.31081     -6241.2151      0             -6086.2842     -12406.948      28093.027    
     30000   712.18703     -6237.4012      0             -6084.2177     -14627.567      28165.49     
     30050   721.72948     -6242.703       0             -6087.467      -15019.672      28602.029    
     30100   706.55562     -6240.4818      0             -6088.5095     -14683.39       28221.819    
     30150   715.99544     -6236.8342      0             -6082.8316     -13039.878      27987.884    
     30200   714.54682     -6243.939       0             -6090.2479     -13693.616      28393.173    
     30250   722.46522     -6243.1061      0             -6087.7119     -11875.784      28117.021    
     30300   716.75263     -6242.6071      0             -6088.4416     -10742.735      27626.361    
     30350   734.82717     -6246.9024      0             -6088.8493     -9302.4404      27517.312    
     30400   726.69765     -6247.2576      0             -6090.953      -6885.3863      27825.467    
     30450   710.45796     -6244.4292      0             -6091.6175     -7858.8376      28210.44     
     30500   714.06256     -6244.5777      0             -6090.9908     -9430.6884      28001.155    
     30550   705.36876     -6241.621       0             -6089.904      -8919.0946      28130.372    
     30600   705.9549      -6240.4         0             -6088.5569     -12598.721      27999.568    
     30650   721.09511     -6245.2447      0             -6090.1452     -11824.768      27841.555    
     30700   722.95823     -6246.7588      0             -6091.2586     -15819.754      28112.998    
     30750   709.42589     -6244.3271      0             -6091.7375     -14018.177      28824.051    
     30800   714.54674     -6244.9618      0             -6091.2707     -14528.16       28728.158    
     30850   715.88085     -6245.1033      0             -6091.1253     -16195.442      28763.334    
     30900   713.23033     -6248.9395      0             -6095.5316     -12465.746      28477.258    
     30950   705.58533     -6245.7215      0             -6093.958      -9953.6552      28302.033    
     31000   704.70421     -6243.9696      0             -6092.3956     -9855.7028      28290.946    
     31050   693.20807     -6245.622       0             -6096.5207     -9423.9192      27871.474    
     31100   711.8909      -6247.1134      0             -6093.9936     -6213.556       28010.322    
     31150   719.42        -6245.1261      0             -6090.3868     -7510.5474      28233.213    
     31200   716.74024     -6246.6694      0             -6092.5065     -6496.5729      28351.501    
     31250   726.08859     -6241.8053      0             -6085.6318     -11054.462      28147.776    
     31300   712.93104     -6238.9142      0             -6085.5707     -10818.81       28087.7      
     31350   720.15578     -6241.7953      0             -6086.8978     -11418.807      28280.419    
     31400   716.48987     -6242.026       0             -6087.917      -14738.301      28685.825    
     31450   732.48514     -6243.458       0             -6085.9086     -16701.661      28594.901    
     31500   715.51405     -6241.6299      0             -6087.7308     -14630.438      28475.182    
     31550   702.70333     -6237.5187      0             -6086.375      -15044.604      28303.368    
     31600   720.277       -6242.7874      0             -6087.8638     -12190.871      28090.142    
     31650   715.63628     -6242.8334      0             -6088.908      -10821.249      28394.78     
     31700   712.23486     -6244.59        0             -6091.3962     -10922.071      28218.023    
     31750   722.55368     -6246.4792      0             -6091.0659     -9041.8473      28403.207    
     31800   716.26487     -6246.9689      0             -6092.9083     -7256.208       28191.556    
     31850   712.98994     -6242.6467      0             -6089.2905     -7064.0041      27777.183    
     31900   717.79213     -6248.0045      0             -6093.6154     -10034.742      28297.197    
     31950   704.45762     -6241.8159      0             -6090.2949     -10042.749      28493.334    
     32000   719.78873     -6247.7541      0             -6092.9356     -12588.046      28492.667    
     32050   711.96209     -6242.8985      0             -6089.7634     -11684.587      28781.997    
     32100   708.28091     -6243.0145      0             -6090.6711     -14472.686      27701.459    
     32150   708.54862     -6243.3227      0             -6090.9218     -16689.687      27939.086    
     32200   717.03927     -6246.004       0             -6091.7769     -16612.199      27822.506    
     32250   707.0278      -6243.0882      0             -6091.0144     -15115.043      27937.903    
     32300   736.7602      -6245.0976      0             -6086.6287     -12476.834      28096.421    
     32350   702.74243     -6239.6995      0             -6088.5474     -9241.0994      28081.654    
     32400   708.32016     -6243.4617      0             -6091.1099     -10238.761      27910.03     
     32450   718.37203     -6243.7623      0             -6089.2484     -9540.0672      28644.466    
     32500   700.99618     -6243.9436      0             -6093.1672     -8671.3899      28083.943    
     32550   728.8358      -6244.8896      0             -6088.1251     -8210.6921      28018.1      
     32600   719.59716     -6247.9797      0             -6093.2024     -10623.366      27921.221    
     32650   718.96831     -6246.1605      0             -6091.5184     -11094.957      27848.235    
     32700   699.40114     -6245.8503      0             -6095.4169     -12177.46       28097.994    
     32750   709.63906     -6244.3929      0             -6091.7574     -12726.269      28297.737    
     32800   709.31093     -6247.6111      0             -6095.0462     -14066.486      28600.592    
     32850   701.22797     -6244.3135      0             -6093.4872     -13779.916      28481.69     
     32900   706.29729     -6246.6903      0             -6094.7736     -14526.505      28300.521    
     32950   709.52092     -6243.3075      0             -6090.6974     -12332.151      28718.947    
     33000   715.13946     -6246.3686      0             -6092.5501     -10824.213      28541.88     
     33050   704.88776     -6242.7434      0             -6091.1299     -10214.464      28195.33     
     33100   711.96309     -6242.317       0             -6089.1817     -10691.196      27664.647    
     33150   727.30336     -6251.052       0             -6094.6171     -11394.773      27628.263    
     33200   707.01444     -6241.8327      0             -6089.7618     -8452.4709      27545.238    
     33250   695.89699     -6240.5929      0             -6090.9132     -7706.4943      27790.206    
     33300   708.87941     -6242.1246      0             -6089.6525     -10137.751      27778.442    
     33350   714.81833     -6242.4768      0             -6088.7273     -12115.211      27467.554    
     33400   723.56946     -6242.7959      0             -6087.1642     -11376.416      27718.427    
     33450   703.84691     -6241.8506      0             -6090.4609     -11437.756      28436.615    
     33500   715.62505     -6244.3554      0             -6090.4324     -13804.897      28306.857    
     33550   705.93333     -6242.6019      0             -6090.7635     -15070.289      28348.432    
     33600   719.69595     -6245.5344      0             -6090.7358     -14745.507      28219.261    
     33650   712.20557     -6239.5632      0             -6086.3757     -12889.368      28166.502    
     33700   726.87363     -6245.4808      0             -6089.1384     -10739.184      28211.76     
     33750   736.20942     -6246.9575      0             -6088.6071     -10798.969      28244.083    
     33800   743.09316     -6249.0065      0             -6089.1754     -12062.427      28547.213    
     33850   705.84592     -6241.8323      0             -6090.0127     -9127.5811      28700.044    
     33900   711.88161     -6244.645       0             -6091.5272     -8860.3352      28320.589    
     33950   722.51601     -6245.5969      0             -6090.1918     -8900.4821      28641.489    
     34000   691.28096     -6241.9996      0             -6093.3127     -10440.006      28772.583    
     34050   695.14129     -6238.2382      0             -6088.721      -10281.244      28522.023    
     34100   706.47275     -6241.9481      0             -6089.9937     -14681.596      27894.112    
     34150   720.47642     -6246.1576      0             -6091.1911     -14336.131      27894.404    
     34200   701.79275     -6240.9747      0             -6090.0269     -11982.91       27929.164    
     34250   709.59457     -6239.8514      0             -6087.2255     -13595.9        28179.362    
     34300   711.6944      -6236.1594      0             -6083.0819     -10248.5        28106.8      
     34350   711.72423     -6242.4509      0             -6089.367      -10175.776      28448.194    
     34400   730.25291     -6243.2463      0             -6086.177      -9315.4858      28489.358    
     34450   733.72086     -6239.915       0             -6082.0998     -8495.197       28302.187    
     34500   709.14907     -6238.5876      0             -6086.0576     -8195.9557      28283.625    
     34550   726.95158     -6241.4226      0             -6085.0634     -8730.1414      28633.773    
     34600   723.28201     -6241.1061      0             -6085.5361     -9240.8196      28433.053    
     34650   745.19741     -6242.7398      0             -6082.4561     -10889.302      28151.479    
     34700   732.51654     -6241.8721      0             -6084.316      -13220.888      28111.41     
     34750   730.32859     -6239.6689      0             -6082.5833     -12608.812      28303.797    
     34800   734.99586     -6239.9429      0             -6081.8535     -15532.322      28095.003    
     34850   731.63166     -6240.7221      0             -6083.3563     -14339.743      28296.01     
     34900   737.64235     -6240.8436      0             -6082.1849     -14704.955      28670.619    
     34950   746.86275     -6246.6835      0             -6086.0416     -15291.775      28182.769    
     35000   721.98908     -6238.8083      0             -6083.5165     -9941.0945      28148.049    
     35050   738.73753     -6245.0621      0             -6086.1679     -11308.274      28504.274    
     35100   722.19967     -6240.6514      0             -6085.3143     -7773.4599      28281.382    
     35150   724.87829     -6243.1099      0             -6087.1966     -9235.3637      28269.124    
     35200   717.16478     -6245.1559      0             -6090.9017     -8944.5886      28190.843    
     35250   746.63537     -6246.9217      0             -6086.3287     -8895.0368      28125.684    
     35300   725.2993      -6244.5819      0             -6088.578      -9432.818       27982.984    
     35350   724.19932     -6237.9628      0             -6082.1956     -8459.8823      28303.375    
     35400   723.09977     -6242.3671      0             -6086.8364     -12645.419      28560.989    
     35450   709.10694     -6236.7524      0             -6084.2314     -12176.451      28517.382    
     35500   705.42486     -6231.6215      0             -6079.8925     -13453.899      28167.12     
     35550   742.38125     -6246.4535      0             -6086.7755     -15014.116      28362.15     
     35600   710.84265     -6237.5799      0             -6084.6856     -13895.632      28388.026    
     35650   725.50203     -6239.7673      0             -6083.7198     -13818.266      28098.065    
     35700   712.9015      -6239.4293      0             -6086.0922     -12141.503      27974.963    
     35750   741.93858     -6244.3922      0             -6084.8094     -10753.117      27760.17     
     35800   727.53456     -6240.6264      0             -6084.1418     -7811.0586      27992.079    
     35850   736.97464     -6243.6109      0             -6085.0959     -8945.6369      27910.637    
     35900   696.52521     -6238.3736      0             -6088.5588     -7572.2001      28163.908    
     35950   727.80311     -6239.752       0             -6083.2096     -6845.5403      28348.956    
     36000   716.10334     -6241.1038      0             -6087.078      -8501.4729      28383.576    
     36050   737.72824     -6246.6443      0             -6087.9671     -10415.741      28283.546    
     36100   701.57661     -6240.869       0             -6089.9677     -11230.77       28458.642    
     36150   704.78068     -6242.3658      0             -6090.7753     -13700.278      28359.721    
     36200   718.54017     -6244.7935      0             -6090.2435     -14702.849      28409.424    
     36250   709.15657     -6242.7984      0             -6090.2667     -14032.713      28629.53     
     36300   711.59226     -6243.7099      0             -6090.6543     -14011.337      28433.493    
     36350   717.90497     -6245.8819      0             -6091.4685     -15868.891      28421.672    
     36400   727.59607     -6248.0448      0             -6091.547      -12295.491      28138.717    
     36450   725.89559     -6246.8824      0             -6090.7503     -10943.105      28301.569    
     36500   713.27466     -6243.9026      0             -6090.4852     -7666.5159      28493.806    
     36550   725.6954      -6249.2838      0             -6093.1948     -10660.566      28476.029    
[...]
     40900   733.88929     -6239.3698      0             -6081.5184     -6799.4414      28505.327    
     40950   703.17124     -6239.9175      0             -6088.6732     -12060.271      28637.688    
     41000   706.37373     -6240.2788      0             -6088.3456     -14849.781      28852.657    
     41050   706.73885     -6233.4703      0             -6081.4587     -15174.428      28580.704    
     41100   718.31621     -6242.3483      0             -6087.8465     -14812.239      28107.262    
     41150   739.19428     -6241.1665      0             -6082.174      -14915.228      27709.195    
     41200   714.41579     -6239.2903      0             -6085.6274     -16008.441      27770.702    
     41250   725.61638     -6243.1372      0             -6087.0652     -14541.798      28280.467    
     41300   722.84113     -6241.7197      0             -6086.2446     -9381.458       28621.603    
     41350   738.92284     -6246.6531      0             -6087.719      -8253.656       28671.561    
     41400   725.59597     -6244.3618      0             -6088.2941     -6909.1441      27956.996    
     41450   727.2072      -6248.0171      0             -6091.603      -9309.6844      27932.305    
     41500   706.81512     -6244.4329      0             -6092.4048     -7556.6384      28546.732    
     41550   726.3888      -6248.2848      0             -6092.0466     -7682.836       28079.314    
     41600   712.94539     -6244.2166      0             -6090.87       -7964.9557      27713.572    
     41650   703.01025     -6242.9117      0             -6091.7021     -12663.183      28070.686    
     41700   699.17102     -6244.295       0             -6093.9111     -15611.34       28200.995    
     41750   697.423       -6239.9627      0             -6089.9548     -12741.987      28313.788    
     41800   705.26972     -6239.3035      0             -6087.6079     -13040.42       28684.86     
     41850   729.91842     -6249.901       0             -6092.9037     -14747.467      28231.458    
     41900   702.87513     -6246.1747      0             -6094.9941     -15368.424      28587.574    
     41950   709.08924     -6248.2973      0             -6095.7801     -14611.28       27937.297    
     42000   710.90881     -6245.6346      0             -6092.726      -10271.682      27888.837    
     42050   716.57745     -6247.0168      0             -6092.889      -8013.851       27767.824    
     42100   718.63299     -6247.073       0             -6092.503      -7695.9407      28181.475    
     42150   714.95234     -6250.5299      0             -6096.7516     -9072.0024      27994.221    
     42200   718.99125     -6247.3666      0             -6092.7196     -9416.9008      28345.245    
     42250   707.04642     -6243.5428      0             -6091.4649     -8432.3827      28502.99     
     42300   724.42459     -6248.3628      0             -6092.5471     -10316.234      28032.648    
     42350   715.9978      -6246.4458      0             -6092.4427     -13185.055      28341.301    
     42400   729.52665     -6248.2307      0             -6091.3176     -15891.481      28378.006    
     42450   711.66595     -6242.7935      0             -6089.722      -13638.173      28754.9      
     42500   699.86612     -6239.5019      0             -6088.9684     -13246.559      28488.15     
     42550   700.35504     -6240.0289      0             -6089.3904     -15208.652      28447.738    
     42600   699.15139     -6242.7493      0             -6092.3697     -13837.023      28318.719    
     42650   692.66824     -6241.5795      0             -6092.5943     -13548.868      28483.485    
     42700   714.67081     -6248.7052      0             -6094.9875     -10168.576      28118.269    
     42750   722.60747     -6248.1943      0             -6092.7695     -9036.6602      28061.055    
     42800   687.10987     -6242.6493      0             -6094.8596     -7684.8393      28232.237    
     42850   703.02124     -6250.7506      0             -6099.5386     -8846.7208      28047.496    
     42900   705.81331     -6247.3529      0             -6095.5403     -9113.572       28135.329    
     42950   706.70807     -6244.6512      0             -6092.6462     -10095.729      28242.899    
     43000   701.98608     -6242.6369      0             -6091.6475     -8704.6674      28144.551    
     43050   699.219       -6245.4873      0             -6095.0931     -13482.04       28026.69     
     43100   689.02667     -6240.17        0             -6091.968      -14019.234      28158.876    
     43150   693.33336     -6245.1604      0             -6096.0321     -15052.198      28027.062    
     43200   695.80556     -6242.8877      0             -6093.2276     -13295.35       28166.449    
     43250   706.51272     -6240.3603      0             -6088.3973     -12613.158      28315.246    
     43300   727.09699     -6250.3176      0             -6093.9272     -13596.145      28357.081    
     43350   724.69415     -6248.0615      0             -6092.1878     -12034.871      28543.748    
     43400   699.13797     -6245.3863      0             -6095.0095     -9656.832       28916.42     
     43450   694.03023     -6243.299       0             -6094.0208     -6316.7946      28883.28     
     43500   725.70768     -6250.2011      0             -6094.1095     -10253.448      28253.107    
     43550   696.46261     -6246.1025      0             -6096.3012     -10250.109      27929.186    
     43600   712.957       -6246.5288      0             -6093.1797     -9155.3367      28354.37     
     43650   722.26068     -6247.535       0             -6092.1848     -10305.317      28166.742    
     43700   702.98519     -6242.1214      0             -6090.9171     -10836.118      27917.716    
     43750   710.39893     -6240.6592      0             -6087.8603     -12702.337      28247.458    
     43800   718.81217     -6242.9271      0             -6088.3185     -12963.484      28399.624    
     43850   713.22875     -6240.382       0             -6086.9744     -13423.615      28893.691    
     43900   723.11523     -6241.1376      0             -6085.6035     -13898.679      27991.904    
     43950   720.06561     -6240.3356      0             -6085.4575     -12302.727      27982.177    
     44000   728.60997     -6240.0072      0             -6083.2913     -13691.134      28143.509    
     44050   709.64548     -6241.8541      0             -6089.2173     -12499.603      28515.562    
     44100   724.72588     -6239.3071      0             -6083.4267     -8913.4699      28702.712    
     44150   723.49004     -6242.3193      0             -6086.7047     -9464.7004      27790.499    
     44200   708.75033     -6239.1682      0             -6086.7239     -9510.6585      28199.96     
     44250   722.62838     -6242.663       0             -6087.2337     -9757.5797      28138.584    
     44300   709.48917     -6236.8908      0             -6084.2876     -8065.0066      28107.759    
     44350   750.75862     -6245.6873      0             -6084.2074     -9405.8511      28217.371    
     44400   730.36836     -6241.189       0             -6084.0949     -9925.6954      28566.475    
     44450   707.82477     -6235.8148      0             -6083.5695     -13844.009      28506.067    
     44500   721.94456     -6238.3363      0             -6083.054      -13096.823      28618.878    
     44550   725.11201     -6242.3392      0             -6086.3756     -14738.599      28561.24     
     44600   705.27877     -6235.1032      0             -6083.4056     -11847.957      28593.687    
     44650   727.48888     -6243.2797      0             -6086.8049     -14721.592      28570.491    
     44700   728.02716     -6241.855       0             -6085.2645     -12663.902      28421.228    
     44750   721.90985     -6241.5833      0             -6086.3085     -12065.206      28331.585    
     44800   748.63191     -6248.3609      0             -6087.3385     -10451.659      28486.143    
     44850   709.50681     -6238.0488      0             -6085.4418     -8544.6049      28464.216    
     44900   718.83375     -6239.803       0             -6085.1899     -9646.1498      28154.772    
     44950   708.68363     -6241.9707      0             -6089.5407     -9111.2048      27848.93     
     45000   711.69468     -6238.6008      0             -6085.5232     -7442.5752      28735.247    
     45050   721.72795     -6244.8077      0             -6089.5721     -10443.287      28182.703    
     45100   729.46253     -6247.078       0             -6090.1787     -11272.064      28432.467    
     45150   695.64475     -6244.3278      0             -6094.7023     -15221.322      28055.192    
     45200   700.55954     -6242.4274      0             -6091.7448     -14793.561      28399.563    
     45250   714.45092     -6241.571       0             -6087.9006     -11838.182      28302.234    
     45300   708.14275     -6244.1131      0             -6091.7995     -12187.385      28365.802    
     45350   706.98109     -6246.1991      0             -6094.1353     -12822.124      28279.217    
     45400   712.43057     -6243.7781      0             -6090.5422     -12368.843      28090.739    
     45450   710.22245     -6243.6531      0             -6090.8922     -11067.245      27878.312    
     45500   714.28519     -6239.0506      0             -6085.4158     -7578.0616      28151.547    
     45550   712.8327      -6245.679       0             -6092.3566     -9301.433       28010.564    
     45600   712.42666     -6238.3103      0             -6085.0753     -8404.6529      28306.195    
     45650   702.04194     -6243.608       0             -6092.6066     -10012.493      28557.882    
     45700   709.86244     -6242.5185      0             -6089.835      -10101.123      28265.56     
     45750   715.75209     -6237.5613      0             -6083.611      -9904.6841      28483.676    
     45800   720.95378     -6243.1952      0             -6088.126      -11867.939      28879.256    
     45850   738.36573     -6244.887       0             -6086.0728     -15611.414      28789.435    
     45900   712.39681     -6239.1853      0             -6085.9566     -13693.92       28446.368    
     45950   728.08389     -6241.4308      0             -6084.8281     -12336.75       28240.871    
     46000   711.91644     -6235.3382      0             -6082.2129     -10589.09       28364.509    
     46050   711.41513     -6238.5725      0             -6085.555      -11749.228      28415.196    
     46100   709.58781     -6237.4078      0             -6084.7834     -12343.432      28221.768    
     46150   738.82483     -6243.0428      0             -6084.1298     -10767.138      28432.975    
     46200   730.0236      -6240.2661      0             -6083.2462     -5880.0648      28234.135    
     46250   735.11524     -6241.5788      0             -6083.4637     -9408.7648      27866.942    
     46300   715.40805     -6236.9519      0             -6083.0756     -10573.672      27724.472    
     46350   737.00485     -6245.8426      0             -6087.321      -11412.346      28367.923    
     46400   735.21703     -6238.7463      0             -6080.6093     -9167.1191      28370.995    
     46450   736.99137     -6238.3901      0             -6079.8714     -10160.9        28588.533    
     46500   726.15994     -6236.7137      0             -6080.5248     -11836.398      28313.5      
     46550   732.52695     -6235.868       0             -6078.3096     -14648.312      28226.045    
     46600   735.56321     -6239.0201      0             -6080.8087     -13897.015      28588.588    
     46650   736.81899     -6237.6293      0             -6079.1478     -12919.62       28598.055    
     46700   734.88149     -6235.2873      0             -6077.2224     -12359.841      28788.195    
     46750   731.90503     -6240.9562      0             -6083.5316     -13213.508      28155.501    
     46800   715.52182     -6237.9148      0             -6084.014      -12360.423      28294.83     
     46850   742.26376     -6241.6298      0             -6081.9771     -11015.526      28406.824    
     46900   719.35936     -6237.8643      0             -6083.1381     -6810.5543      28115.807    
     46950   722.87815     -6238.0882      0             -6082.6051     -7719.2798      27870.876    
     47000   718.71991     -6238.3137      0             -6083.725      -9572.2571      28097.615    
     47050   712.61557     -6239.434       0             -6086.1584     -10331.962      28339.388    
     47100   723.1753      -6243.3113      0             -6087.7644     -10513.138      28463.653    
     47150   732.40361     -6245.6738      0             -6088.1419     -10411.615      27850.754    
     47200   710.62161     -6236.6719      0             -6083.8251     -10900.362      28585.835    
     47250   706.07606     -6240.144       0             -6088.2749     -14296.557      28800.784    
     47300   712.0419      -6242.2737      0             -6089.1214     -13294.676      28079.669    
     47350   725.5211      -6244.2717      0             -6088.2202     -13387.624      27934.492    
     47400   735.39581     -6247.5779      0             -6089.4024     -14247.111      27931.553    
     47450   709.46569     -6242.3244      0             -6089.7262     -13366.009      27926.826    
     47500   721.17317     -6244.9516      0             -6089.8353     -13204.864      27688.861    
     47550   729.04846     -6243.3421      0             -6086.5319     -9179.7088      27904.905    
     47600   720.80864     -6239.8225      0             -6084.7845     -7989.0158      28372.757    
     47650   726.48205     -6242.9557      0             -6086.6975     -9322.8926      28091.625    
     47700   711.32136     -6243.368       0             -6090.3707     -10754.147      28092.948    
     47750   712.77302     -6240.256       0             -6086.9464     -10011.618      27961.301    
     47800   728.58064     -6243.8114      0             -6087.1018     -10762.151      27997.908    
     47850   714.61022     -6240.3403      0             -6086.6356     -10931.935      27969.148    
     47900   715.71731     -6241.5373      0             -6087.5944     -13352.785      28180.795    
     47950   706.49348     -6238.7599      0             -6086.801      -13278.388      28872.58     
     48000   724.00373     -6239.7794      0             -6084.0542     -12728.614      28478.592    
     48050   737.97216     -6239.5471      0             -6080.8175     -13238.445      28519.115    
     48100   718.82252     -6236.9458      0             -6082.3351     -11131.825      28526.771    
     48150   731.13799     -6239.1634      0             -6081.9037     -10962.258      28349.958    
     48200   730.068       -6244.7408      0             -6087.7113     -11950.131      28225.779    
     48250   743.72107     -6241.4533      0             -6081.4872     -8121.6637      28463.721    
     48300   723.8103      -6238.9644      0             -6083.2808     -9555.6722      28288.021    
     48350   724.15924     -6240.5234      0             -6084.7648     -11166.636      27878.721    
     48400   725.80327     -6241.0371      0             -6084.9249     -11664.666      27788.837    
     48450   709.87662     -6237.1806      0             -6084.4941     -9835.7291      27845.607    
     48500   702.94088     -6239.8851      0             -6088.6903     -10924.689      27985.448    
     48550   707.72721     -6238.084       0             -6085.8598     -10896.613      28306.861    
     48600   701.87179     -6242.8469      0             -6091.8821     -14532.874      27846.286    
     48650   703.44026     -6238.4829      0             -6087.1807     -12037.324      28130.236    
     48700   705.4586      -6242.385       0             -6090.6487     -11816.683      27775.1      
     48750   729.6689      -6245.5907      0             -6088.6471     -13782.33       27618.585    
     48800   713.57134     -6240.3352      0             -6086.8539     -9863.2084      27984.623    
     48850   726.37622     -6243.1994      0             -6086.9639     -10735.128      28360.799    
     48900   721.54394     -6245.6082      0             -6090.4122     -11847.037      28531.939    
     48950   728.1584      -6243.667       0             -6087.0482     -9581.5963      28795.972    
     49000   717.898       -6242.3213      0             -6087.9094     -9856.2352      28602.667    
     49050   689.63529     -6240.4226      0             -6092.0897     -11352.25       28106.802    
     49100   722.53483     -6242.6821      0             -6087.2729     -10830.125      28429.467    
     49150   705.11302     -6239.6271      0             -6087.9652     -10882.572      28224.066    
     49200   710.60299     -6239.5135      0             -6086.6707     -12654.074      27744.26     
     49250   710.78205     -6242.711       0             -6089.8297     -11755.716      27729.313    
     49300   710.90688     -6241.7056      0             -6088.7974     -14473.464      28344.06     
     49350   722.46592     -6245.588       0             -6090.1936     -14136.208      28617.311    
     49400   719.23248     -6245.5584      0             -6090.8595     -11311.588      28716.394    
     49450   696.61992     -6242.9315      0             -6093.0963     -10628.35       28387.593    
     49500   717.72675     -6243.641       0             -6089.2659     -10108.423      27798.552    
     49550   725.79991     -6248.8276      0             -6092.7161     -11100.271      27724.385    
     49600   699.92738     -6242.0178      0             -6091.4712     -9914.1268      27703.031    
     49650   722.57364     -6249.265       0             -6093.8475     -10523.32       28095.484    
     49700   720.53496     -6250.4114      0             -6095.4324     -10605.421      28213.64     
     49750   705.19575     -6245.3898      0             -6093.71       -10581.396      28039.531    
     49800   694.50838     -6246.1327      0             -6096.7517     -11184.828      27824.404    
     49850   710.75342     -6246.3926      0             -6093.5175     -11699.822      28030.805    
     49900   695.15752     -6242.246       0             -6092.7254     -11977.881      28304.518    
     49950   688.94613     -6238.5855      0             -6090.4008     -11480.819      28554.963    
     50000   716.19048     -6244.869       0             -6090.8244     -12251.752      28554.533    
     50003   721.05157     -6245.9183      0             -6090.8281     -12584.114      28554.533    
Loop time of 106.863 on 8 procs for 50000 steps with 1665 atoms

Performance: 202.128 ns/day, 0.119 hours/ns, 467.890 timesteps/s, 779.036 katom-step/s
79.5% CPU use with 8 MPI tasks x no OpenMP threads

MPI task timing breakdown:
Section |  min time  |  avg time  |  max time  |%varavg| %total
---------------------------------------------------------------
Pair    | 59.584     | 60.51      | 61.501     |  11.3 | 56.62
Neigh   | 0.65861    | 0.8966     | 1.1446     |  23.8 |  0.84
Comm    | 20.487     | 21.269     | 22.035     |  14.1 | 19.90
Output  | 0.67477    | 0.69484    | 0.71694    |   1.5 |  0.65
Modify  | 19.084     | 19.204     | 19.312     |   1.9 | 17.97
Other   |            | 4.288      |            |       |  4.01

Nlocal:        208.125 ave         226 max         177 min
Histogram: 1 0 1 0 1 1 0 0 1 3
Nghost:        943.125 ave         956 max         922 min
Histogram: 1 1 0 1 0 0 0 0 3 2
Neighs:        9100.88 ave       10664 max        6988 min
Histogram: 1 1 2 0 0 0 0 0 0 4

Total # of neighbors = 72807
Ave neighs/atom = 43.727928
Neighbor list builds = 1621
Dangerous builds = 0
Total wall time: 0:01:46
