ITEM: TIMESTEP
0
ITEM: NUMBER OF ATOMS
7711
ITEM: BOX BOUNDS xy xz yz pp pp pp
-1.1454338654554917e+01 1.5562492650054789e+01 -8.4553612160395222e-15
-5.3785055942856161e+01 6.2001363933855757e+01 3.7715223274669035e-15
-1.4769247199824976e+01 3.6877401195145907e+01 3.7715223274669035e-15
ITEM: ATOMS id type x y z
39 2 -9.45068 -49.9914 -6.34963
3 2 -9.64344 -51.8997 -4.50824
1140 2 -7.65568 -49.7331 -4.40254
4 2 -11.3924 -53.7599 -4.43651
1104 2 -7.48384 -53.7303 -4.37193
1105 2 -7.49298 -51.7215 -6.17853
1138 2 -5.61776 -49.9254 -6.32957
1103 2 -5.73467 -51.7086 -4.42456
2201 2 -3.88038 -51.8471 -6.39798
1102 2 -5.59996 -53.757 -6.25779
2237 2 -3.58949 -50.0395 -4.236
2235 2 -1.92163 -49.705 -6.2912
2199 2 -1.95487 -51.9291 -4.45953
3312 2 0.0190547 -51.7984 -6.37277
3347 2 -0.022505 -50.0248 -4.47456
3311 2 -0.0297976 -53.7013 -4.33389
3345 2 1.87012 -50.0402 -6.15654
3310 2 1.91121 -51.9783 -4.23732
4411 2 3.7916 -51.9753 -6.46311
4448 2 3.89865 -50.1565 -4.45104
3309 2 1.85693 -53.6697 -6.30662
4446 2 5.97047 -50.1059 -6.35559
4518 1 6.1378 -51.701 -6.43759
4409 2 5.81403 -51.9452 -4.34519
5553 2 7.81989 -49.9126 -4.5145
5518 2 7.8262 -51.8423 -6.50694
4408 2 5.80911 -53.6568 -6.32575
5517 2 7.73257 -53.7784 -4.4866
5623 1 7.84458 -49.712 -6.07086
5551 2 9.82769 -49.8976 -6.40089
5516 2 9.89785 -51.8079 -4.45747
5515 2 9.70201 -53.7532 -6.2166
41 2 15.5605 -49.8011 -4.52776
5 2 15.3687 -51.8642 -6.37487
6653 2 11.7432 -49.8997 -4.59454
6617 2 11.798 -51.8834 -6.40372
6651 2 13.7201 -50.1061 -6.47372
1 1 13.7379 -51.8491 -6.4627
6615 2 13.6625 -51.8593 -4.44555
6616 2 11.7384 -53.735 -4.58652
6614 2 13.4943 -53.767 -6.52551
76 2 -9.62031 -46.1259 -6.38644
5628 1 -9.066 -48.3123 -6.08758
40 2 -9.58043 -47.8867 -4.41445
1141 2 -7.56573 -47.9474 -6.43809
1178 2 -7.5444 -46.1119 -4.64038
1176 2 -5.49926 -46.0911 -6.237
1139 2 -5.70919 -48.0672 -4.33345
2273 2 -3.74397 -45.956 -4.31797
2238 2 -3.75668 -47.9171 -5.9573
2271 2 -1.87253 -46.2086 -6.17942
2236 2 -1.67658 -48.02 -4.38246
3385 2 0.101285 -46.1532 -4.53228
3348 2 0.388292 -48.0696 -6.25547
3383 2 2.14122 -45.9528 -6.30053
3346 2 2.03169 -48.0847 -4.36855
4484 2 3.94698 -46.0515 -4.37232
4449 2 3.83328 -48.045 -6.33713
4482 2 5.56313 -46.024 -6.48562
4447 2 5.85824 -48.1071 -4.58997
5589 2 7.68445 -46.2495 -4.48346
5554 2 7.74386 -47.8872 -6.57138
5587 2 9.7581 -46.069 -6.31701
5552 2 9.78141 -47.9531 -4.54142
6690 2 11.6739 -45.9071 -4.49073
42 2 15.5041 -48.1515 -6.61296
6654 2 11.7311 -47.9334 -6.29311
78 2 15.4928 -46.1348 -4.61558
6688 2 13.5121 -45.884 -6.37634
6652 2 13.5908 -47.9469 -4.38123
112 2 -9.29367 -42.3005 -6.58608
77 2 -9.56673 -44.2388 -4.5312
114 2 -11.3114 -42.1977 -4.43825
1214 2 -7.80756 -42.1705 -4.55727
1179 2 -7.51451 -44.1493 -6.61845
1212 2 -5.74074 -42.1814 -6.53584
2309 1 -7.25291 -42.8387 -6.32378
1177 2 -5.82571 -44.1653 -4.56581
2312 2 -3.91322 -42.3573 -4.64965
2274 2 -3.59493 -44.2657 -6.37082
2310 2 -1.69644 -42.3323 -6.47822
2272 2 -1.75221 -43.9801 -4.49096
3422 2 0.264904 -42.141 -4.53147
3386 2 0.252563 -44.1819 -6.35504
3420 2 1.82726 -42.2423 -6.474
3384 2 2.28002 -44.0746 -4.47731
4485 2 3.98708 -43.9158 -6.36364
4522 2 4.1439 -42.1764 -4.69643
4520 2 6.10921 -42.0809 -6.43006
4483 2 5.99485 -44.2817 -4.64883
5626 2 7.86825 -42.1206 -4.52545
5590 2 8.22017 -43.9186 -6.43834
5624 2 9.6829 -41.7807 -6.58908
5588 2 9.80898 -43.9966 -4.54472
6727 2 11.7892 -42.054 -4.6458
6691 2 11.7907 -43.9828 -6.48596
79 2 15.4906 -44.0118 -6.35141
6725 2 13.611 -42.0167 -6.47135
6689 2 13.5995 -43.9067 -4.5226
149 2 -9.66616 -38.441 -6.33313
113 2 -9.60054 -40.3539 -4.64802
1250 2 -7.86361 -38.2944 -4.58249
1215 2 -7.68086 -40.1937 -6.5886
115 2 -11.4229 -40.6079 -6.38026
1248 2 -5.66614 -38.5423 -6.57717
1213 2 -5.74147 -40.1927 -4.48259
2313 2 -3.79387 -40.406 -6.32875
2349 2 -3.73572 -38.415 -4.71026
2347 2 -1.6703 -38.253 -6.50702
2311 2 -1.76358 -40.3247 -4.79893
3459 2 0.102178 -38.2583 -4.47136
4519 1 0.425605 -38.4999 -6.22044
3423 2 0.296493 -40.1881 -6.48962
3457 2 1.97012 -38.3579 -6.43513
3421 2 2.02614 -40.1909 -4.53691
4559 2 3.97112 -38.2163 -4.51447
4523 2 4.05551 -40.3167 -6.27879
4557 2 5.82185 -38.1468 -6.28964
4521 2 5.82865 -40.0311 -4.4295
5627 2 7.65609 -40.0126 -6.23236
5664 2 7.97169 -38.3086 -4.34079
5661 1 10.0496 -39.9515 -6.39739
5662 2 9.69356 -38.3531 -6.57888
5625 2 9.80703 -40.202 -4.50479
6728 2 11.6049 -40.0382 -6.48946
6763 2 11.6729 -38.245 -4.56112
151 2 15.4996 -38.2289 -4.43007
6761 2 13.7028 -38.2458 -6.41394
6726 2 13.6953 -40.2156 -4.52237
185 2 -9.46834 -34.4451 -6.38856
150 2 -9.59037 -36.3456 -4.34621
152 2 -11.2413 -36.3996 -6.38355
1251 2 -7.53508 -36.6003 -6.26146
1287 2 -7.5298 -34.4267 -4.42231
148 1 -5.76475 -36.2385 -6.67981
1285 2 -5.79621 -34.5607 -6.424
1249 2 -5.66522 -36.5379 -4.39785
2350 2 -4.26001 -36.43 -6.61709
2385 2 -3.70911 -34.6405 -4.66456
2383 2 -1.71769 -34.5551 -6.59618
2348 2 -1.84025 -36.4888 -4.69561
3495 2 -0.0478248 -34.5677 -4.51134
3460 2 0.193184 -36.3838 -6.41744
3493 2 2.03607 -34.4509 -6.27194
3458 2 1.84934 -36.4171 -4.45528
4560 2 3.94798 -36.2993 -6.33995
4595 2 3.90912 -34.4326 -4.3373
4593 2 5.90816 -34.3868 -6.26363
4558 2 5.76488 -36.1592 -4.57295
5701 2 7.83789 -34.4653 -4.29014
5665 2 7.75117 -36.2019 -6.18447
5699 2 9.83004 -34.4994 -6.22584
5663 2 9.75883 -36.3345 -4.60203
6764 2 11.7799 -36.3183 -6.23219
187 2 15.422 -34.7598 -4.43982
6800 2 11.7632 -34.4581 -4.3465
6798 2 13.7155 -34.4552 -6.28092
6762 2 13.6972 -36.5727 -4.50261
227 1 -9.30847 -32.8067 -6.24383
223 2 -9.47488 -30.7101 -6.32468
186 2 -9.4625 -32.548 -4.35436
1288 2 -7.60515 -32.508 -6.38438
1323 2 -7.7171 -30.6716 -4.30698
188 2 -11.3622 -32.4045 -6.49044
225 2 -11.2266 -30.7166 -4.3255
1321 2 -5.6208 -30.604 -6.25649
1286 2 -5.452 -32.4051 -4.4494
2423 2 -3.74217 -30.446 -4.3555
2386 2 -3.60401 -32.6452 -6.37435
2346 1 -1.97218 -32.9907 -6.21103
2421 2 -2.01505 -30.3759 -6.27178
2384 2 -1.77505 -32.5286 -4.45414
3532 2 0.110507 -30.5863 -4.58462
3496 2 0.0881676 -32.5196 -6.33512
3530 2 1.994 -30.5093 -6.34167
3494 2 2.02361 -32.5494 -4.3816
4633 2 3.74293 -30.5549 -4.42578
3566 1 3.87947 -30.6847 -6.05943
4596 2 3.8138 -32.4142 -6.26893
4631 2 5.75243 -30.7065 -6.14138
4594 2 5.73313 -32.5453 -4.28674
5737 2 7.77424 -30.5731 -4.38192
5702 2 7.93415 -32.5264 -6.14385
5735 2 9.8286 -30.6721 -6.13671
5700 2 9.82012 -32.6036 -4.31363
6801 2 11.5551 -32.5307 -6.15687
6836 2 11.7433 -30.6369 -4.28748
6834 2 13.6373 -30.6907 -6.21568
6799 2 13.8253 -32.4711 -4.41995
261 2 -9.59429 -26.8029 -6.33825
224 2 -9.43921 -28.6898 -4.51811
263 2 -11.324 -26.7552 -4.32311
262 2 -9.45824 -24.9593 -4.48419
1324 2 -7.54405 -28.7096 -6.22899
1359 2 -7.50446 -26.7877 -4.44702
1357 2 -5.62485 -26.8299 -6.13585
1322 2 -5.72514 -28.9271 -4.17288
2424 2 -3.74855 -28.5092 -6.36068
1358 2 -5.71187 -24.9068 -4.40052
2461 2 -3.74435 -24.8474 -6.22876
2460 2 -3.6666 -26.7604 -4.28198
2458 2 -1.67668 -26.8157 -6.18902
2422 2 -1.8672 -28.5871 -4.40275
3533 2 0.0740118 -28.5604 -6.34072
2459 2 -1.68487 -24.8478 -4.21381
3569 2 0.266462 -26.7129 -4.31306
3567 2 2.14331 -26.8289 -6.13741
3531 2 2.03164 -28.6196 -4.27949
4669 2 4.01728 -26.7497 -4.13568
4634 2 4.04139 -28.6671 -6.16859
4632 2 5.88663 -28.8181 -4.43005
4667 2 5.80338 -26.7604 -5.94369
5774 2 7.64194 -26.9111 -4.14259
5738 2 7.67928 -28.7395 -6.18179
5772 2 9.53701 -26.7644 -6.18954
5736 2 9.63663 -28.7467 -4.35618
6872 2 11.6102 -26.9359 -4.14953
5773 2 9.6541 -24.9067 -4.27948
226 2 15.5552 -28.7642 -6.14902
6837 2 11.8616 -28.7704 -6.07779
6870 2 13.6885 -26.7481 -6.03752
6835 2 13.7911 -28.806 -4.3714
264 2 15.5507 -24.8576 -6.19708
6873 2 11.7363 -24.9377 -5.91823
6871 2 13.6646 -24.8505 -4.14584
43 2 -9.60115 -50.0196 -2.56514
7 2 -9.76805 -52.0203 -0.45461
1144 2 -7.74373 -50.1603 -0.607167
9 2 -11.4301 -51.959 -2.53525
1108 2 -7.77625 -53.7029 -0.54091
1109 2 -7.59122 -51.9407 -2.53399
1107 2 -5.62445 -51.7253 -0.252273
1142 2 -5.68108 -50.018 -2.46587
2241 2 -3.92361 -49.8088 -0.541146
2204 2 -3.74095 -53.7285 -0.385432
2205 2 -3.7319 -51.8982 -2.41909
2239 2 -1.86689 -50.0483 -2.16923
2203 2 -1.74911 -51.8748 -0.372539
3316 2 0.0117803 -51.8573 -2.42609
3315 2 0.058861 -53.7579 -0.261296
4414 2 3.97294 -53.763 -0.371018
3351 2 0.243057 -49.8607 -0.319135
3349 2 2.07771 -49.8649 -2.5564
3314 2 2.00777 -52.0242 -0.396101
4452 2 3.93412 -49.9225 -0.507921
4415 2 3.9591 -51.9437 -2.47554
4412 2 5.91088 -53.7354 -2.34322
4450 2 5.72346 -50.0625 -2.50339
4413 2 5.88747 -51.7055 -0.432233
5519 2 9.79422 -53.7567 -2.76285
5557 2 7.9527 -49.9198 -0.457542
5522 2 7.90365 -51.9118 -2.32416
5555 2 9.73639 -49.8896 -2.58154
5520 2 9.69451 -51.9178 -0.435728
6657 2 11.5739 -49.978 -0.571973
6621 2 11.5852 -51.7672 -2.44847
45 2 15.4219 -50.1184 -0.770503
6655 2 13.7083 -49.986 -2.75103
6619 2 13.3968 -51.907 -0.555213
80 2 -9.58049 -46.0688 -2.57841
44 2 -9.76602 -48.0496 -0.653496
1182 2 -7.59969 -46.2565 -0.579712
1145 2 -7.68741 -47.9494 -2.49902
1180 2 -5.78589 -46.0389 -2.47844
1143 2 -5.7984 -48.0493 -0.641983
2277 2 -3.75406 -46.112 -0.588178
2242 2 -3.80239 -48.1184 -2.43158
2275 2 -1.76343 -45.9527 -2.5808
2240 2 -1.69893 -47.7792 -0.565106
2283 1 -2.01581 -45.8488 -0.227031
3352 2 0.0462744 -48.0775 -2.39452
3389 2 0.0429911 -46.0233 -0.539098
3387 2 1.81044 -46.066 -2.63663
3350 2 2.19361 -48.057 -0.472188
4453 2 3.93004 -47.9373 -2.81254
4488 2 3.8044 -46.1241 -0.671639
4486 2 5.94527 -46.1418 -2.4274
4451 2 5.81264 -47.9398 -0.464626
5558 2 7.77361 -48.1452 -2.36117
5593 2 7.81372 -45.9772 -0.534765
5591 2 9.75557 -46.1233 -2.51531
5556 2 9.64292 -48.021 -0.463161
6694 2 11.5886 -45.9951 -0.757705
82 2 15.4558 -46.0115 -0.556233
46 2 15.4475 -47.8429 -2.64305
6658 2 11.72 -47.9912 -2.58752
6692 2 13.6788 -45.8712 -2.77872
6656 2 13.5298 -48.0306 -0.588003
116 2 -9.58004 -42.2105 -2.62996
81 2 -9.50891 -44.1178 -0.628987
83 2 -11.3824 -44.1998 -2.60778
1183 2 -7.65398 -44.3081 -2.70908
1218 2 -7.55934 -42.3192 -0.53238
1216 2 -5.71856 -42.2427 -2.64731
1181 2 -5.84151 -44.1194 -0.567786
2278 2 -3.87506 -44.1471 -2.42847
2316 2 -3.72094 -42.1629 -0.707775
2314 2 -1.99951 -42.1142 -2.74892
2276 2 -1.76081 -44.0685 -0.507651
3426 2 -0.100531 -41.9739 -0.483653
3390 2 0.0416804 -43.9707 -2.50876
3424 2 2.20573 -42.2934 -2.5151
3388 2 1.91988 -44.0782 -0.608772
4526 2 4.00301 -42.0733 -0.485036
4489 2 3.99985 -44.084 -2.59054
4524 2 5.98303 -42.1879 -2.65238
4487 2 6.04621 -44.096 -0.693557
5631 2 7.75632 -42.0481 -0.531539
5594 2 7.91326 -44.1834 -2.84093
5629 2 9.63145 -41.9876 -2.62347
5592 2 9.62863 -43.9434 -0.724358
6695 2 11.6194 -43.9378 -2.61074
118 2 15.4829 -42.2021 -0.463946
6731 2 11.7678 -42.2449 -0.695863
6729 2 13.6435 -42.1744 -2.52506
6693 2 13.6232 -44.1781 -0.592598
153 2 -9.48022 -38.2744 -2.41004
117 2 -9.5433 -40.4265 -0.550967
155 2 -11.23 -38.2665 -0.481903
1219 2 -7.63633 -40.3144 -2.6108
1254 2 -7.70739 -38.1983 -0.421963
119 2 -11.4428 -40.1191 -2.56352
1252 2 -5.81272 -38.4146 -2.54811
1217 2 -5.79303 -40.2994 -0.604925
2353 2 -3.92606 -38.3749 -0.395062
2317 2 -3.90551 -40.1599 -2.74021
2351 2 -2.03601 -38.4998 -2.56172
2315 2 -1.99804 -40.1422 -0.502112
3427 2 0.0665964 -40.2796 -2.55253
3463 2 0.203528 -38.4843 -0.672745
3461 2 2.13871 -38.3742 -2.39838
3425 2 2.11093 -40.3755 -0.595493
4563 2 4.02856 -38.3556 -0.561155
4527 2 4.09716 -40.2761 -2.63854
4561 2 6.02797 -38.12 -2.43771
4525 2 5.92031 -40.3262 -0.543155
5632 2 7.63317 -40.1037 -2.70337
5668 2 7.957 -38.3697 -0.283557
5666 2 9.80451 -38.3409 -2.445
5630 2 9.88064 -40.2301 -0.550585
6768 2 11.5882 -38.2438 -0.472289
6732 2 11.9043 -40.3133 -2.67252
6766 2 13.5315 -38.1456 -2.33957
6730 2 13.6512 -40.0723 -0.624914
189 2 -9.30512 -34.5307 -2.31032
154 2 -9.46144 -36.301 -0.379855
191 2 -11.3818 -34.4798 -0.361014
156 2 -11.3576 -36.4469 -2.28981
1291 2 -7.42626 -34.4941 -0.553464
1255 2 -7.48662 -36.3615 -2.67924
1289 2 -5.42067 -34.4152 -2.34078
1253 2 -5.76242 -36.3999 -0.618878
2354 2 -3.72569 -36.5608 -2.39416
2389 2 -3.6068 -34.4777 -0.303993
2387 2 -2.01446 -34.6411 -2.43703
2352 2 -1.85918 -36.5861 -0.380521
3499 2 0.00128915 -34.4396 -0.524362
3464 2 -0.0776711 -36.4901 -2.43148
3497 2 1.91354 -34.5445 -2.4477
3462 2 1.9642 -36.4653 -0.676202
4599 2 3.84911 -34.5176 -0.510973
4564 2 4.02714 -36.3687 -2.35285
4597 2 5.86773 -34.4911 -2.2879
4562 2 5.90322 -36.3345 -0.42013
5705 2 7.71502 -34.4454 -0.410102
5669 2 7.86289 -36.4193 -2.56717
5703 2 9.76791 -34.4155 -2.41803
5667 2 9.84056 -36.4321 -0.60946
6765 1 9.88074 -34.7708 -0.355577
6769 2 11.693 -36.4068 -2.55704
6804 2 11.8146 -34.4225 -0.561608
6802 2 13.7522 -34.4869 -2.52832
6767 2 13.5114 -36.4369 -0.383103
228 2 -9.4478 -30.7103 -2.31067
190 2 -9.37793 -32.5898 -0.446756
230 2 -11.395 -30.6995 -0.497265
1327 2 -7.4844 -30.604 -0.405652
1292 2 -7.39981 -32.6352 -2.53457
1325 2 -5.67402 -30.6168 -2.33997
1290 2 -5.55736 -32.3764 -0.573141
2390 2 -3.73174 -32.4981 -2.69049
2427 2 -3.58716 -30.6292 -0.5397
2425 2 -1.67177 -30.6046 -2.55459
2388 2 -1.75346 -32.6274 -0.572801
3500 2 0.0653667 -32.6091 -2.51829
3536 2 0.0474827 -30.5967 -0.509188
3534 2 2.02341 -30.6528 -2.33566
3498 2 1.92647 -32.6496 -0.379134
4637 2 3.80555 -30.498 -0.435653
4600 2 3.98921 -32.4566 -2.40858
4635 2 5.92823 -30.5298 -2.42722
4598 2 5.87438 -32.4564 -0.420582
5706 2 7.60523 -32.416 -2.46837
5741 2 7.87334 -30.552 -0.213444
5739 2 9.68708 -30.7831 -2.41669
5704 2 9.79322 -32.6221 -0.570123
6840 2 11.5957 -30.5368 -0.488617
192 2 15.5185 -32.6951 -2.45925
6805 2 11.8005 -32.5778 -2.36654
6838 2 13.7147 -30.6826 -2.54426
6803 2 13.7657 -32.5416 -0.504473
265 2 -9.45132 -26.8297 -2.45129
229 2 -9.65138 -28.8461 -0.600802
1364 2 -7.74442 -26.7275 -0.420894
231 2 -11.4113 -28.7711 -2.50026
267 2 -11.3788 -26.6619 -0.348406
266 2 -9.58856 -24.8806 -0.542055
1326 2 -5.65011 -28.644 -0.403469
1328 2 -7.51362 -28.6035 -2.31631
1362 2 -5.53906 -26.839 -2.40489
2465 2 -3.89111 -24.9543 -2.48377
2463 2 -1.85766 -24.8897 -0.372367
2428 2 -3.62358 -28.6903 -2.43436
2464 2 -3.62506 -26.693 -0.270932
2462 2 -1.68253 -26.8102 -2.44729
2426 2 -1.76477 -28.7407 -0.350652
3573 2 0.0768531 -26.8413 -0.382791
3537 2 0.102923 -28.6362 -2.45962
3571 2 2.02726 -26.7562 -2.41888
3535 2 1.99594 -28.6336 -0.491323
4673 2 3.89303 -26.7891 -0.37885
3572 2 2.02214 -24.9944 -0.60225
4638 2 4.01671 -28.6486 -2.36111
4671 2 5.85372 -26.7287 -2.16472
4636 2 5.881 -28.7509 -0.227394
5778 2 7.71885 -26.8155 -0.337704
5742 2 7.90115 -28.7787 -2.33424
5776 2 9.59886 -26.7409 -2.28234
5740 2 9.8523 -28.6448 -0.277611
6841 2 11.5669 -28.5838 -2.3706
5777 2 9.69305 -24.8552 -0.599694
6876 2 11.791 -26.7094 -0.569641
6874 2 13.7738 -26.8982 -2.47659
6839 2 13.6331 -28.6977 -0.539531
6875 2 13.7897 -24.9626 -0.583045
6877 2 11.845 -25.0155 -2.35989
47 2 -9.61349 -49.9919 1.30681
11 2 -9.63291 -51.9018 3.39656
49 2 -11.4303 -49.9384 3.30823
1148 2 -7.66625 -49.8988 3.54515
1113 2 -7.73549 -51.8821 1.65607
1112 2 -7.60065 -53.7657 3.52352
2208 2 -3.79796 -53.6395 3.57126
1110 2 -5.57875 -53.6074 1.60644
1111 2 -5.74734 -51.6814 3.46295
2245 2 -3.76704 -49.7434 3.63336
7609 1 -5.66859 -53.6827 0.00571312
3319 2 0.0135283 -53.7686 3.57488
2209 2 -3.68478 -51.5976 1.61475
2243 2 -1.95318 -49.6966 1.34211
2207 2 -1.7361 -51.8249 3.46583
3320 2 0.022621 -51.7877 1.55527
3355 2 0.0654833 -49.9769 3.49495
2206 2 -1.84085 -53.7638 1.59575
3317 2 2.08578 -53.6304 1.59791
3353 2 2.0374 -50.0324 1.57689
3318 2 2.18262 -51.8887 3.65131
4419 2 3.97521 -51.7294 1.43415
4418 2 4.07227 -53.7698 3.39608
4456 2 4.01456 -50.0733 3.46284
4454 2 6.0009 -49.8787 1.58988
4417 2 6.02554 -51.6919 3.47135
4416 2 5.90068 -53.7363 1.39669
5526 2 8.01152 -51.7429 1.67862
5559 2 9.7435 -49.8555 1.43647
5524 2 9.69067 -51.7292 3.6196
6625 2 11.5257 -51.9381 1.49738
5523 2 9.69573 -53.7409 1.41422
13 2 15.435 -52.0956 1.52078
6661 2 11.7631 -49.7689 3.35503
6659 2 13.5167 -50.1046 1.18484
6623 2 13.4872 -51.7029 3.38545
84 2 -9.50415 -46.0825 1.3445
48 2 -9.5419 -48.087 3.29426
1186 2 -7.60218 -46.0446 3.29739
1149 2 -7.74216 -47.9807 1.30198
1146 2 -5.81917 -49.6145 1.46003
1184 2 -5.67574 -46.1837 1.37373
1147 2 -5.72513 -47.8919 3.5105
2281 2 -3.94004 -45.9843 3.57678
2246 2 -3.77727 -47.7753 1.4529
2279 2 -1.8995 -45.9482 1.57802
2244 2 -1.93275 -47.9362 3.38224
3393 2 0.208041 -45.9799 3.60814
3356 2 0.184747 -47.9426 1.56003
3391 2 1.9358 -46.0227 1.49762
3354 2 2.15232 -48.0152 3.53789
4457 2 3.8931 -47.9402 1.51581
4492 2 4.0921 -45.9175 3.48946
4490 2 5.95671 -46.035 1.54655
4455 2 5.97364 -47.9313 3.36963
5562 2 7.75214 -48.0015 1.45457
5561 2 7.89081 -49.6458 3.52013
5597 2 7.87321 -46.0601 3.44103
5595 2 9.72779 -46.0489 1.38251
5560 2 9.98356 -47.8217 3.4009
50 2 15.4432 -48.1852 1.24732
86 2 15.5373 -46.2009 3.27695
6662 2 11.7187 -47.9463 1.39842
6698 2 11.8663 -46.0804 3.44677
6696 2 13.6157 -46.2941 1.26055
6660 2 13.726 -48.0419 3.31556
120 2 -9.48521 -42.1269 1.61927
85 2 -9.57207 -44.3603 3.32408
1187 2 -7.59578 -44.2497 1.41339
1222 2 -7.51015 -42.2428 3.51085
1220 2 -5.78837 -42.1484 1.41023
1185 2 -5.55724 -44.2439 3.55053
2282 2 -3.97782 -44.1613 1.38419
2320 2 -3.80153 -42.1458 3.45401
2318 2 -2.00653 -42.1616 1.53941
2280 2 -1.85097 -44.2072 3.48628
3394 2 0.0860649 -43.9349 1.63322
3430 2 0.129862 -42.2467 3.5634
3428 2 2.00225 -42.2379 1.48847
3392 2 2.17277 -44.163 3.36425
4493 2 3.91292 -44.3063 1.30888
4530 2 3.91009 -42.4476 3.32153
4528 2 5.82882 -42.2959 1.43516
4491 2 5.95499 -44.1784 3.48118
5635 2 7.6769 -42.2242 3.48921
5598 2 7.73032 -44.0246 1.33056
5633 2 9.86155 -42.0991 1.35647
5596 2 9.80246 -44.1485 3.30501
6735 2 11.6733 -42.1776 3.51013
87 2 15.4371 -44.3151 1.38199
122 2 15.4811 -42.3793 3.36962
6699 2 11.7782 -44.2291 1.4362
6733 2 13.606 -42.2535 1.22459
6697 2 13.5695 -44.1923 3.35242
157 2 -9.46293 -38.3535 1.48294
121 2 -9.49448 -40.2772 3.54723
123 2 -11.4276 -40.2092 1.53088
1223 2 -7.66825 -40.2957 1.46608
159 2 -11.4144 -38.3582 3.56022
1258 2 -7.57238 -38.418 3.58961
1256 2 -5.76982 -38.4671 1.53264
1221 2 -5.83074 -40.2547 3.38661
2321 2 -3.8165 -40.1684 1.51138
2357 2 -3.82565 -38.3503 3.63572
2355 2 -1.89962 -38.3003 1.49402
2319 2 -1.79564 -40.2764 3.46401
3431 2 -0.0455306 -40.2709 1.425
3467 2 0.0639727 -38.4526 3.51706
3465 2 2.03684 -38.3282 1.36273
3429 2 1.94638 -40.2136 3.3899
4567 2 3.88451 -38.4328 3.30182
4531 2 3.89676 -40.3517 1.36178
4565 2 5.78898 -38.386 1.46152
4529 2 5.77245 -40.1967 3.44001
5636 2 7.63985 -40.3899 1.44766
5672 2 7.79504 -38.435 3.44952
5670 2 9.87836 -38.5333 1.56819
5634 2 9.80042 -40.4069 3.44766
6772 2 11.6568 -38.4747 3.52217
6736 2 11.7735 -40.4966 1.29718
6770 2 13.6747 -38.4603 1.50908
6734 2 13.7081 -40.4069 3.51629
193 2 -9.49688 -34.4636 1.44943
158 2 -9.62978 -36.3524 3.35301
160 2 -11.397 -36.5558 1.48635
195 2 -11.4355 -34.4504 3.45001
1259 2 -7.53042 -36.3179 1.5294
1293 2 -5.63009 -34.3625 1.44343
1257 2 -5.75698 -36.4005 3.54836
2358 2 -3.9574 -36.3862 1.50515
2394 2 -3.85447 -34.5243 3.66888
2392 2 -1.94837 -34.4548 1.54772
2356 2 -2.03884 -36.3117 3.29489
3468 2 0.106909 -36.5348 1.35478
3503 2 0.0816203 -34.6895 3.4512
3501 2 1.86809 -34.5057 1.48842
3466 2 1.96571 -36.4218 3.35158
4603 2 3.86359 -34.5686 3.48713
4568 2 4.04083 -36.4273 1.52791
4601 2 5.88065 -34.523 1.55102
4566 2 5.97972 -36.5178 3.59506
5673 2 8.07154 -36.4719 1.66167
5709 2 7.9029 -34.4968 3.56396
5707 2 9.8821 -34.4844 1.37171
5671 2 9.89797 -36.352 3.63317
6773 2 11.6243 -36.5373 1.58398
6808 2 11.8295 -34.422 3.46289
6806 2 13.6408 -34.4627 1.56387
6771 2 13.5843 -36.5145 3.27416
5678 1 11.8196 -36.6343 3.27308
232 2 -9.33444 -30.7461 1.39374
194 2 -9.48661 -32.5247 3.40795
196 2 -11.3533 -32.472 1.54865
234 2 -11.4186 -30.6657 3.47578
1296 2 -7.43629 -32.6109 1.51959
1329 2 -5.54301 -30.6121 1.53627
1294 2 -5.66506 -32.5469 3.59561
2431 2 -3.74572 -30.6707 3.50968
2391 1 -3.41999 -32.7529 3.47598
2395 2 -3.59219 -32.3797 1.63891
2429 2 -1.69264 -30.4636 1.61829
2393 2 -1.78486 -32.5888 3.58088
3504 2 0.0998134 -32.5775 1.47253
3540 2 0.293132 -30.8158 3.66287
3538 2 1.89619 -30.7186 1.52397
3502 2 1.90547 -32.7452 3.40841
4641 2 3.8708 -30.7322 3.58627
4604 2 3.95752 -32.7304 1.52905
4639 2 5.66329 -30.5752 1.5932
5710 2 7.67787 -32.5099 1.58941
5743 2 9.77381 -30.67 1.74623
5708 2 9.86965 -32.6547 3.54007
6844 2 11.7027 -30.7811 3.59648
6809 2 11.7985 -32.429 1.44917
6842 2 13.6749 -30.5793 1.38075
6807 2 13.6911 -32.4989 3.52463
270 2 -9.48625 -26.6552 1.48896
233 2 -9.45668 -28.7031 3.33894
1332 2 -7.60653 -28.8349 1.63942
235 2 -11.3681 -28.7871 1.35429
2470 1 -7.58669 -28.402 3.62389
1368 2 -7.54015 -26.6684 3.51192
1366 2 -5.71767 -26.8906 1.52123
1330 2 -5.66522 -28.7019 3.5932
2468 2 -3.69192 -26.8995 3.41984
2432 2 -3.63894 -28.7414 1.4492
2466 2 -1.70036 -26.8783 1.51721
2430 2 -1.5834 -28.6809 3.5344
3577 2 0.0768354 -26.6851 3.64794
3541 2 0.347042 -28.6107 1.67111
3575 2 2.05537 -26.6034 1.59057
3539 2 1.99174 -28.8682 3.61587
4677 2 3.70898 -26.818 3.52282
3578 2 0.140273 -24.9022 1.42111
4642 2 4.05081 -28.632 1.57177
5783 2 7.81118 -24.8438 1.54747
4675 2 5.90643 -26.7616 1.64541
4640 2 5.95856 -28.7463 3.61262
5782 2 7.74517 -26.7366 3.54781
4678 2 4.01315 -24.9822 1.56035
4676 2 5.81865 -24.9878 3.57153
5822 1 9.56349 -28.7207 1.57532
6845 2 11.6992 -28.6529 1.37458
5746 2 7.96624 -28.726 1.75654
5780 2 9.81298 -26.6377 1.56455
5781 2 10.0198 -24.9182 3.66402
6880 2 11.7367 -26.9372 3.52466
272 2 15.4635 -26.9188 3.46469
6878 2 13.5875 -26.9546 1.42851
6843 2 13.4686 -28.8583 3.48814
6881 2 11.773 -25.0072 1.63803
273 2 15.488 -24.8589 1.74052
14 2 -9.49474 -53.7593 5.47053
52 2 -9.64829 -49.7978 5.4529
1117 2 -7.75433 -51.8615 5.41334
1152 2 -7.68351 -49.9118 7.25094
15 2 -9.54467 -51.7648 7.35893
1150 2 -5.737 -49.8458 5.51063
1115 2 -5.75034 -51.8647 7.32484
2210 2 -1.86268 -53.6366 5.56394
2213 2 -3.70495 -51.793 5.51877
2247 2 -1.80644 -49.8277 5.6016
3324 2 0.243703 -51.8602 5.49207
3357 2 1.92303 -49.7662 5.31516
4421 2 5.93708 -53.7406 5.56426
4424 2 4.19263 -51.9955 5.5913
4458 2 5.96886 -49.8442 5.38784
5530 2 7.71822 -51.94 5.53188
5563 2 9.76951 -49.9072 5.56255
5527 2 9.85226 -53.7733 5.56357
6629 2 11.7558 -51.8987 5.29721
17 2 15.486 -51.8919 5.34377
6663 2 13.5798 -49.8561 5.42386
6627 2 13.642 -51.8823 7.32
88 2 -9.55316 -46.0645 5.42602
1153 2 -7.74664 -47.9317 5.35824
90 2 -11.4025 -46.0541 7.35181
1188 2 -5.80146 -46.0007 5.54913
2250 2 -3.66316 -47.8493 5.68805
2284 2 -1.83093 -46.0185 5.49801
3360 2 0.0346158 -47.8929 5.29989
3395 2 2.1813 -45.9092 5.54079
4461 2 3.97702 -47.9746 5.41957
4496 2 3.88589 -46.2273 7.35232
4494 2 6.01472 -46.1429 5.39002
5566 2 8.00503 -47.8854 5.36697
5599 2 9.9481 -46.0886 5.43595
55 2 15.5414 -47.915 5.41121
6666 2 11.7734 -48.1419 5.4498
6700 2 13.6812 -46.1126 5.35636
124 2 -9.7865 -42.2943 5.3133
1191 2 -7.68231 -44.1538 5.35534
1224 2 -5.68056 -42.3313 5.48548
2287 2 -3.75719 -44.0383 5.60156
2322 2 -1.85228 -42.1673 5.36159
3398 2 -0.0352357 -44.168 5.50831
3432 2 1.79224 -42.1358 5.41024
4497 2 3.78203 -44.0008 5.46072
3396 2 1.93325 -44.0328 7.34504
4532 2 5.829 -42.2354 5.35757
5602 2 7.76431 -44.2884 5.49016
5637 2 9.636 -42.3132 5.53155
6703 2 11.7022 -44.1679 5.48472
5639 2 7.84768 -42.2449 7.22352
5600 2 9.81984 -44.2801 7.34739
6739 2 11.5788 -42.2941 7.36192
91 2 15.4755 -44.2779 5.4523
6737 2 13.6499 -42.394 5.58037
161 2 -9.50891 -38.5291 5.63697
1227 2 -7.7026 -40.5338 5.6657
1260 2 -5.75432 -38.6586 5.51795
2325 2 -3.77455 -40.385 5.55426
2359 2 -1.79924 -38.3975 5.36746
3435 2 0.158948 -40.1506 5.39202
3469 2 2.07595 -38.3511 5.38388
4535 2 3.85566 -40.2829 5.38604
3433 2 1.998 -40.1824 7.32793
4420 1 6.71935 -41.286 6.66188
4569 2 5.77725 -38.4441 5.52123
5640 2 7.76385 -40.2901 5.30771
5674 2 9.65518 -38.4089 5.55813
6740 2 11.5712 -40.3311 5.51528
51 1 13.0523 -40.9583 5.0529
127 2 15.4607 -40.4725 5.57754
6774 2 13.694 -38.3479 5.43871
197 2 -9.57964 -34.3891 5.60507
164 2 -11.368 -36.5266 5.45992
1263 2 -7.67033 -36.4733 5.40951
205 1 -11.317 -34.8566 5.35068
1295 2 -7.5597 -34.431 3.7383
1297 2 -5.77683 -34.4038 5.52856
2362 2 -3.79912 -36.3864 5.52023
2396 2 -1.99287 -34.5405 5.52454
3472 2 0.0595059 -36.4195 5.55955
3507 2 0.0827365 -34.3993 7.35728
3505 2 1.98027 -34.6425 5.46901
3470 2 2.179 -36.4869 7.36093
4572 2 3.88044 -36.5546 5.34328
4605 2 5.8435 -34.6288 5.5381
5677 2 7.84341 -36.4384 5.51382
5711 2 9.68053 -34.5885 5.50552
6777 2 11.7961 -36.4893 5.39666
6810 2 13.6106 -34.5923 5.45301
236 2 -9.56761 -30.5988 5.41624
1300 2 -7.70803 -32.6152 5.63694
1331 2 -7.53959 -30.5952 3.68857
1333 2 -5.68006 -30.6929 5.61405
2399 2 -3.76647 -32.5155 5.58828
2433 2 -1.79739 -30.5572 5.65399
3508 2 0.148555 -32.6197 5.53055
3542 2 2.04657 -30.6303 5.57637
4608 2 3.87296 -32.7989 5.46719
4602 2 5.77274 -32.6625 3.75689
5745 2 7.81025 -30.7603 3.67677
4643 2 5.82791 -30.7009 5.52803
5714 2 7.69111 -32.6622 5.55962
5747 2 9.65991 -30.6929 5.54449
6813 2 11.5511 -32.7129 5.59028
200 2 15.5088 -32.6235 5.62066
6846 2 13.6724 -30.7439 5.49715
274 2 -9.64457 -26.6918 5.45103
239 2 -11.4265 -28.7604 5.55034
1336 2 -7.53918 -28.6993 5.42523
1370 2 -5.62666 -26.708 5.49109
2436 2 -3.80644 -28.6806 5.4433
2471 2 -1.81958 -26.8892 5.52856
3545 2 0.0678648 -28.7173 5.49781
3579 2 1.98192 -26.8589 5.5903
4646 2 3.905 -28.7667 5.66878
4680 2 5.71002 -26.7201 5.47552
5750 2 7.71905 -28.7298 5.58164
5787 2 7.71287 -24.9372 5.50017
5744 2 9.82503 -28.6306 3.72663
5784 2 9.62008 -26.8309 5.54211
6885 2 11.689 -24.9772 5.52541
6849 2 11.7611 -28.7676 5.55803
277 2 15.4311 -24.8677 5.42825
6882 2 13.5812 -27.0418 5.49508
56 2 -9.77903 -49.9184 9.15472
1121 2 -7.68736 -51.8633 9.23911
1118 2 -5.72986 -53.6973 9.48249
1154 2 -5.76631 -50.0143 9.43367
2249 2 -3.93872 -49.9594 7.40384
2217 2 -3.75123 -51.7689 9.50943
2212 2 -3.76154 -53.7417 7.63821
2211 2 -1.89315 -51.8207 7.54914
2251 2 -1.92754 -49.8748 9.27801
3328 2 0.012723 -51.7538 9.43621
3359 2 0.119594 -49.8492 7.42182
3325 2 1.88242 -53.6235 9.41612
3322 2 2.05814 -51.8531 7.36989
4460 2 3.88736 -50.1312 7.41367
3361 2 1.93289 -49.8771 9.40557
4428 2 3.96494 -51.7799 9.48564
4423 2 4.16046 -53.6948 7.57063
4425 2 5.96243 -53.6986 9.51661
4422 2 5.97551 -51.7397 7.5026
4462 2 6.03203 -50.0892 9.52749
5528 2 9.78819 -51.8634 7.46049
6628 2 11.6752 -53.7731 7.44149
5565 2 7.93585 -49.7758 7.58832
5534 2 7.97376 -52.066 9.28164
5567 2 9.70162 -49.9264 9.51413
6633 2 11.5916 -51.8986 9.54276
6665 2 11.6726 -50.0819 7.47801
16 2 15.5526 -53.7781 7.37466
54 2 15.4132 -49.9743 7.45395
21 2 15.4548 -51.9036 9.28398
6667 2 13.6031 -49.8778 9.40718
1190 2 -7.76852 -46.1502 7.43209
53 2 -9.58162 -47.9841 7.41007
92 2 -9.4459 -46.2456 9.37494
1157 2 -7.61307 -48.1362 9.43046
1151 2 -5.81397 -47.9919 7.41379
1192 2 -5.68097 -46.0989 9.5512
2254 2 -3.87564 -48.0884 9.21736
3397 2 0.0808263 -46.1421 7.44726
2286 2 -3.69617 -45.9784 7.38174
2248 2 -1.86028 -47.8318 7.54319
2288 2 -1.75105 -46.1271 9.46295
3364 2 0.104456 -47.9673 9.54546
3358 2 2.15552 -48.0993 7.40479
3399 2 2.13233 -46.1833 9.39805
4465 2 4.02683 -48.1191 9.27009
4459 2 5.84514 -48.1073 7.43423
4498 2 5.77534 -46.0312 9.58082
5570 2 7.67074 -47.9317 9.47635
5601 2 7.97796 -46.2968 7.42468
5564 2 10.0445 -48.0789 7.40426
5603 2 9.74285 -46.2365 9.43486
6670 2 11.7066 -48.0401 9.5704
6702 2 11.8937 -46.1116 7.5302
59 2 15.5622 -47.9208 9.451
6664 2 13.5833 -48.0621 7.46409
6704 2 13.5457 -46.1344 9.56151
1226 2 -7.62526 -42.3659 7.38201
89 2 -9.63807 -44.0601 7.41638
128 2 -9.65515 -42.2986 9.5892
126 2 -11.4203 -42.2721 7.64267
1195 2 -7.67558 -44.206 9.30526
1189 2 -5.76347 -44.2284 7.60201
1228 2 -5.74397 -42.2933 9.50544
2324 2 -3.77523 -42.1589 7.50801
2291 2 -3.65886 -44.1958 9.4312
2285 2 -1.82168 -44.0907 7.48491
2326 2 -1.77402 -42.1206 9.49727
3434 2 0.0378138 -42.0422 7.4331
3402 2 0.188725 -44.2356 9.36432
3436 2 1.97142 -42.1511 9.43071
4534 2 3.9169 -42.1343 7.50655
4501 2 3.72536 -44.0561 9.25287
4495 2 5.87394 -44.1992 7.46208
4536 2 5.83718 -42.2166 9.41016
5606 2 7.75973 -44.2373 9.34178
5641 2 9.42208 -42.1632 9.43772
6707 2 11.4611 -44.1318 9.53911
95 2 15.5084 -44.2324 9.39317
6701 2 13.595 -44.3268 7.71238
6741 2 13.4993 -42.0665 9.39152
125 2 -9.47397 -40.4146 7.66504
165 2 -9.62143 -38.3382 9.44255
1262 2 -7.57472 -38.3858 7.5452
1231 2 -7.58953 -40.2922 9.51134
1225 2 -5.67515 -40.2659 7.63658
1264 2 -5.67252 -38.226 9.5385
2361 2 -3.73886 -38.3685 7.50937
2329 2 -3.6929 -40.2039 9.53073
2323 2 -1.86999 -40.1699 7.37558
2363 2 -1.65473 -38.2483 9.42396
4571 2 3.93806 -38.3293 7.45488
3471 2 0.183253 -38.3577 7.55134
3439 2 0.208913 -40.1964 9.39808
3473 2 2.06952 -38.2946 9.4546
4539 2 3.89504 -40.2504 9.42033
4533 2 5.87122 -40.4245 7.40057
4573 2 5.90205 -38.4351 9.44286
5644 2 7.64809 -40.3368 9.54181
5676 2 7.85102 -38.352 7.47011
5638 2 9.7748 -40.2631 7.50436
5679 2 9.56588 -38.388 9.47635
6744 2 11.6766 -40.1169 9.56459
6776 2 11.6926 -38.4416 7.37888
131 2 15.4092 -40.3232 9.61468
163 2 15.5126 -38.5548 7.60134
6738 2 13.5344 -40.2267 7.46051
6778 2 13.6052 -38.3651 9.53707
162 2 -9.52882 -36.3778 7.5684
2408 1 -9.62553 -36.5257 9.20865
201 2 -9.59987 -34.3366 9.46707
1267 2 -7.70534 -36.396 9.62622
1299 2 -7.43345 -34.4382 7.57037
1261 2 -5.71946 -36.6109 7.37166
1301 2 -5.65005 -34.4857 9.55545
2398 2 -3.98754 -34.4977 7.53312
2366 2 -3.7762 -36.5624 9.50778
2360 2 -1.93278 -36.3739 7.51345
2400 2 -1.86679 -34.53 9.47538
3476 2 0.119933 -36.346 9.37109
3509 2 2.06229 -34.4554 9.35982
4576 2 3.92671 -36.3322 9.38052
4607 2 4.00276 -34.5839 7.40821
4570 2 5.80316 -36.5311 7.64915
4609 2 5.77526 -34.3766 9.5186
5682 2 7.79883 -36.349 9.46122
5713 2 7.60193 -34.5567 7.42466
4679 1 8.03922 -34.3245 9.29409
5675 2 9.87321 -36.3585 7.43006
5715 2 9.88162 -34.5962 9.54392
6812 2 11.5998 -34.5776 7.53003
6781 2 11.6995 -36.5343 9.51191
199 2 15.5398 -34.6086 7.58627
168 2 15.5207 -36.4887 9.56301
6775 2 13.642 -36.532 7.5094
6814 2 13.6032 -34.5253 9.63137