ITEM: TIMESTEP
0
ITEM: NUMBER OF ATOMS
7711
ITEM: BOX BOUNDS xy xz yz pp pp pp
-1.1437645566894862e+01 1.5545799562394734e+01 -8.4449124639719089e-15
-5.3713514138597965e+01 6.1929822129597561e+01 3.7668616511564152e-15
-1.4737335906481167e+01 3.6845489901801287e+01 3.7668616511564152e-15
ITEM: ATOMS id type x y z
3 2 -9.37488 -51.9282 -4.212
1140 2 -7.59835 -49.909 -4.47122
1105 2 -7.6753 -52.022 -6.5248
4 2 -11.4072 -53.6502 -4.40979
5 2 -11.2615 -51.662 -6.35051
41 2 -11.3159 -49.8991 -4.34866
39 2 -9.3943 -49.7384 -6.18032
4420 1 -5.71126 -51.9374 -6.41159
1103 2 -5.64247 -51.7481 -4.47682
1138 2 -5.70405 -50.1413 -6.46849
1102 2 -5.34606 -53.3605 -6.3773
2237 2 -3.55495 -49.9634 -4.37164
2201 2 -3.55746 -51.7455 -6.61858
2199 2 -1.69405 -51.9992 -4.48852
2235 2 -1.70132 -50.0204 -6.33982
3347 2 0.0672501 -49.8075 -4.5496
3312 2 0.0776371 -51.8952 -6.51404
3310 2 1.81023 -51.8631 -4.44444
3345 2 1.83285 -49.8709 -6.31797
4448 2 3.84445 -49.7389 -4.60342
4410 2 3.88667 -53.6629 -4.54431
4411 2 3.82353 -51.6904 -6.26196
4408 2 5.72324 -53.2579 -6.39072
4409 2 5.99097 -51.7295 -4.41686
4446 2 5.69486 -50.0216 -6.17238
5518 2 7.81068 -51.6853 -6.44262
5517 2 7.78046 -53.6666 -4.50339
5515 2 9.59734 -53.3813 -6.39491
5553 2 7.88689 -49.6242 -4.87893
5516 2 9.791 -51.5858 -4.42284
5551 2 9.95047 -49.775 -6.61039
6617 2 11.7722 -51.6361 -6.38364
4518 1 12.1167 -50.0916 -6.08853
6653 2 11.7991 -49.9551 -4.51539
6615 2 13.7502 -51.7807 -4.46925
6651 2 13.8005 -49.8887 -6.4758
76 2 -9.48928 -46.2208 -6.78115
40 2 -9.55575 -47.7495 -4.4972
1141 2 -7.67183 -47.8421 -6.28532
42 2 -11.296 -47.9856 -6.43976
1178 2 -7.57044 -45.9333 -4.53804
1176 2 -5.6103 -46.1318 -6.3321
1139 2 -5.71933 -47.9556 -4.38297
2238 2 -3.92084 -48.1583 -6.42228
5628 1 -3.62812 -46.6256 -6.06079
2273 2 -3.69502 -46.161 -4.41155
2271 2 -1.8717 -46.1811 -6.26452
2236 2 -1.84188 -47.891 -4.36392
3348 2 0.0306645 -47.9416 -6.31627
3385 2 0.273791 -45.9739 -4.35833
3383 2 1.99192 -46.1478 -6.43261
3346 2 1.94132 -47.9966 -4.58761
4484 2 3.90591 -45.9836 -4.38629
4449 2 4.04215 -47.8527 -6.47281
4482 2 5.80403 -45.9002 -6.48221
4447 2 5.95416 -47.9383 -4.669
5589 2 7.8657 -46.1013 -4.53518
5554 2 7.93703 -47.9328 -6.73069
5587 2 9.80427 -46.0568 -6.4583
5552 2 9.76624 -47.8741 -4.66355
6690 2 11.684 -46.2466 -4.64446
7683 1 15.287 -46.3929 -6.41701
78 2 15.3584 -45.9784 -4.52864
6654 2 11.8277 -48.228 -6.627
6688 2 13.6848 -46.2855 -6.72039
6652 2 13.6486 -47.9595 -4.49531
112 2 -9.53952 -42.2523 -6.46258
77 2 -9.39063 -44.2734 -4.66226
114 2 -11.3736 -42.3846 -4.62422
79 2 -11.3769 -44.4099 -6.66879
1214 2 -7.54257 -42.4812 -4.72147
1179 2 -7.53814 -44.4073 -6.60501
1212 2 -5.71928 -42.3651 -6.57971
1177 2 -5.56318 -44.1697 -4.46935
2274 2 -3.73054 -44.266 -6.34948
2312 2 -3.66293 -42.243 -4.68427
2310 2 -1.41775 -42.1213 -6.74799
2272 2 -1.72035 -44.0554 -4.66227
3422 2 0.285109 -42.1168 -4.69944
3386 2 0.397002 -44.1628 -6.45557
3420 2 2.29508 -42.2287 -6.41775
3384 2 2.02813 -44.1827 -4.48169
4522 2 3.99017 -42.3477 -4.59507
4485 2 4.0245 -44.2061 -6.49201
4520 2 5.98031 -42.4559 -6.61454
4483 2 5.90896 -44.2144 -4.44204
5590 2 7.92868 -44.2947 -6.53573
5626 2 8.13256 -42.3696 -4.42911
5624 2 9.70396 -42.2232 -6.41405
5588 2 9.79176 -44.3708 -4.55533
6691 2 11.5472 -44.0722 -6.54649
6727 2 11.7011 -42.2587 -4.37345
6725 2 13.4221 -42.2052 -6.48335
6689 2 13.6244 -44.0976 -4.72855
149 2 -9.33479 -38.5493 -6.70346
113 2 -9.49996 -40.2915 -4.47861
115 2 -11.3725 -40.4756 -6.51435
1250 2 -7.48331 -38.1643 -4.66727
1215 2 -7.37599 -40.2984 -6.30429
51 1 -7.48629 -38.186 -6.66626
1248 2 -5.82655 -38.2184 -6.73201
1213 2 -5.49848 -40.3112 -4.54483
2349 2 -3.82908 -38.2626 -4.82999
2313 2 -3.60063 -40.3763 -6.66473
205 1 -1.89034 -40.1867 -6.65323
2347 2 -1.71956 -38.3248 -6.57984
2311 2 -1.78473 -40.2876 -4.56279
3423 2 -0.0263892 -40.1834 -6.55124
3459 2 0.335103 -38.5248 -4.68492
3457 2 2.5353 -38.5052 -6.75078
3421 2 2.05123 -40.3719 -4.83193
7609 1 4.34174 -38.4298 -6.2287
4523 2 4.21838 -40.3603 -6.53198
4559 2 4.14103 -38.3936 -4.56098
4557 2 5.97757 -38.3192 -6.53773
4521 2 5.85162 -40.4731 -4.50139
5664 2 7.75108 -38.3687 -4.63408
5627 2 7.61865 -40.5338 -6.15552
5662 2 9.55554 -38.1799 -6.47979
5625 2 9.75121 -40.0987 -4.81015
6728 2 11.6286 -40.4358 -6.40135
151 2 15.325 -38.448 -4.67771
6763 2 11.7636 -38.3815 -4.69486
5661 1 14.1757 -40.5648 -6.05139
6761 2 13.2958 -38.3123 -6.68293
6726 2 13.6089 -40.3288 -4.59596
185 2 -9.54019 -34.4328 -6.49977
150 2 -9.89744 -36.7004 -4.94582
148 1 -10.2191 -35.7128 -6.13136
187 2 -11.2985 -34.5442 -4.55991
1287 2 -7.74876 -34.6317 -4.46007
1251 2 -7.70707 -36.5328 -6.8173
1285 2 -5.63315 -34.383 -6.59174
1249 2 -5.44283 -36.3665 -4.72912
2309 1 -3.78611 -34.1138 -6.33407
2385 2 -3.76278 -34.5028 -4.47637
2350 2 -3.66992 -36.4189 -6.73936
2383 2 -1.83943 -34.4113 -6.48136
2348 2 -1.78176 -36.4456 -4.68052
3495 2 0.254435 -34.613 -4.55934
3460 2 0.17672 -36.6967 -6.58964
3493 2 2.1445 -34.2861 -6.32765
3458 2 2.35178 -36.3275 -4.75953
4595 2 4.05179 -34.3166 -4.68424
4560 2 4.35008 -36.4292 -6.47404
4593 2 5.96412 -34.2126 -6.64625
4558 2 6.06517 -36.3525 -4.4644
5665 2 7.87556 -36.2199 -6.50046
5701 2 7.83971 -34.2578 -4.63513
5699 2 9.69621 -34.523 -6.57679
5663 2 9.65247 -36.4113 -4.5647
6800 2 11.663 -34.6452 -4.59897
5623 1 13.5382 -36.8732 -6.21655
152 2 15.421 -36.4633 -6.75665
6764 2 11.7231 -36.3908 -6.65442
6798 2 13.6714 -34.6846 -6.42869
6762 2 13.6668 -36.419 -4.46404
223 2 -9.06225 -30.6579 -6.69429
186 2 -9.50076 -32.6207 -4.68302
225 2 -11.2715 -30.6738 -4.69029
1323 2 -7.48738 -30.5852 -4.56174
2346 1 -7.46232 -30.945 -6.31935
1288 2 -7.41788 -32.6773 -6.435
1321 2 -5.6302 -30.3706 -6.4738
1286 2 -5.5406 -32.4702 -4.6185
2386 2 -3.68777 -32.6091 -6.52055
2423 2 -3.69639 -30.4491 -4.38639
2421 2 -1.92332 -30.6008 -6.22936
2384 2 -1.67347 -32.5326 -4.44109
3532 2 0.1178 -30.6464 -4.51588
4519 1 2.04638 -32.6297 -6.07785
3496 2 0.282928 -32.5644 -6.30005
3530 2 2.01646 -30.5715 -6.48562
3494 2 2.21366 -32.3683 -4.50008
4633 2 3.97707 -30.4958 -4.69253
4596 2 3.98371 -32.4161 -6.71803
4631 2 5.98006 -30.5711 -6.26999
4594 2 6.01545 -32.3741 -4.45265
5737 2 8.07346 -30.5234 -4.66859
5702 2 8.06457 -32.5252 -6.52649
5735 2 9.84607 -30.5677 -6.81365
5700 2 9.77329 -32.7658 -4.54194
227 1 11.4351 -30.8657 -6.58698
6836 2 11.6416 -30.9026 -4.53918
188 2 15.3465 -32.4692 -6.54246
6801 2 11.7346 -32.3248 -6.79637
6834 2 13.4682 -30.6291 -6.68703
6799 2 13.4404 -32.7205 -4.68374
261 2 -9.50985 -26.5287 -6.53198
224 2 -9.42234 -28.4164 -4.50398
222 1 -11.0193 -27.3979 -6.11979
1324 2 -7.74569 -28.541 -6.60733
263 2 -11.4374 -26.7423 -4.67677
1361 1 -7.66411 -26.6204 -6.36738
1359 2 -7.56767 -26.5438 -4.60793
1322 2 -5.65938 -28.4307 -4.49927
1357 2 -5.80868 -26.7378 -6.51895
2460 2 -3.95081 -26.5729 -4.34024
2424 2 -3.72084 -28.5352 -6.10729
2422 2 -1.63445 -28.7397 -4.25867
2458 2 -1.86328 -26.6557 -6.2377
3533 2 -0.0630554 -28.4119 -6.24666
3569 2 0.186487 -26.7708 -4.21613
3567 2 2.31107 -26.7478 -6.3256
3531 2 2.19027 -28.7704 -4.54236
4669 2 3.93038 -26.8362 -4.53405
3570 2 0.34101 -25.0939 -6.10899
3568 2 2.27656 -24.8047 -4.49454
4634 2 4.02669 -28.49 -6.45115
4632 2 6.01456 -28.5213 -4.51628
4667 2 6.15529 -26.5623 -6.35323
4670 2 4.11038 -25.0792 -6.32786
3566 1 9.83325 -24.8839 -6.4287
5774 2 8.01745 -26.6376 -4.4219
5738 2 8.12118 -28.5595 -6.06514
5772 2 9.89585 -26.593 -6.66515
5736 2 10.1306 -28.7237 -4.66675
5775 2 7.97282 -24.9102 -6.59574
6837 2 12.052 -28.5858 -6.53584
226 2 15.4032 -28.8083 -6.47403
6872 2 11.7193 -26.8179 -4.7196
6835 2 13.51 -28.8414 -4.48564
6870 2 13.7404 -26.6925 -6.4154
7 2 -9.4516 -51.7829 -0.332956
43 2 -9.48956 -49.8067 -2.48584
1109 2 -7.58572 -51.9624 -2.29714
1108 2 -7.6592 -53.7086 -0.393495
45 2 -11.3047 -49.9754 -0.457368
9 2 -11.4078 -51.8526 -2.52181
1107 2 -5.63469 -51.9583 -0.361891
1142 2 -5.66564 -49.8823 -2.37591
2205 2 -3.75388 -51.8613 -2.44219
1144 2 -7.57703 -49.9429 -0.621445
2241 2 -3.60491 -50.0795 -0.45712
2203 2 -1.76835 -51.9874 -0.511682
2239 2 -1.67443 -50.048 -2.63654
3351 2 0.117834 -50.0651 -0.630084
3316 2 0.224309 -51.9261 -2.48036
3314 2 2.06654 -51.8107 -0.464176
3349 2 2.05389 -49.878 -2.55691
4415 2 3.89956 -51.7322 -2.4974
4414 2 4.00439 -53.6497 -0.572564
5521 2 7.7537 -53.4488 -0.418512
4452 2 4.04794 -49.9607 -0.536233
4450 2 5.96469 -49.9186 -2.69254
4413 2 5.95559 -51.7315 -0.666015
5557 2 7.7608 -49.8823 -0.459727
5522 2 7.97645 -51.878 -2.39503
5520 2 9.6619 -51.7792 -0.371765
5555 2 9.70476 -49.8036 -2.64755
6621 2 11.5607 -51.97 -2.55586
6657 2 11.5629 -49.9243 -0.501384
6620 2 11.6719 -53.7028 -0.448299
6618 2 13.4018 -53.7124 -2.42489
6655 2 13.6833 -50.0516 -2.4318
6619 2 13.54 -51.777 -0.407344
80 2 -9.52088 -45.8991 -2.52097
44 2 -9.27501 -47.8475 -0.493684
1145 2 -7.70357 -47.8569 -2.62125
46 2 -11.4134 -47.8997 -2.35988
1182 2 -7.40165 -46.0446 -0.582762
1180 2 -5.50231 -45.9985 -2.66109
1143 2 -5.54619 -47.9742 -0.680313
2242 2 -3.71565 -48.0404 -2.44405
2277 2 -3.63635 -46.1826 -0.686358
2275 2 -1.68978 -46.1992 -2.56075
2240 2 -1.70556 -48.0942 -0.519669
3389 2 0.140533 -45.8224 -0.66051
3352 2 0.171711 -47.9827 -2.43867
3387 2 2.07249 -46.161 -2.41083
3350 2 2.00328 -48.0655 -0.60729
4488 2 3.98754 -46.1002 -0.653506
4453 2 4.12779 -47.9303 -2.68619
4486 2 6.10536 -45.9995 -2.69486
4451 2 5.85505 -47.9344 -0.44913
5593 2 7.73302 -46.3249 -0.60566
5558 2 7.77411 -48.0669 -2.57013
5591 2 9.84046 -46.3482 -2.34067
5556 2 9.76287 -48.0937 -0.456409
6658 2 11.6179 -47.9084 -2.55937
82 2 15.4691 -45.8656 -0.557705
6694 2 11.8778 -45.948 -0.423807
6692 2 13.5341 -46.2873 -2.48741
6656 2 13.6919 -48.0625 -0.498392
116 2 -9.4053 -42.341 -2.62767
81 2 -9.61342 -43.9739 -0.516373
1218 2 -7.47685 -42.0525 -0.733129
1183 2 -7.40862 -44.2522 -2.51424
1216 2 -5.71149 -42.1919 -2.62482
1181 2 -5.5365 -43.9274 -0.691581
2278 2 -3.51039 -44.1984 -2.51165
2316 2 -3.5902 -42.0718 -0.860813
2314 2 -1.73384 -42.1338 -2.71576
2276 2 -2.0263 -44.1191 -0.460076
3390 2 0.0220415 -43.9614 -2.57566
3426 2 0.0266276 -42.1813 -0.598326
3424 2 2.1404 -42.1692 -2.71252
3388 2 2.02649 -43.9452 -0.893732
4489 2 3.88393 -44.119 -2.5528
4526 2 3.85488 -42.1992 -0.547029
4524 2 5.76423 -42.2604 -2.51288
4487 2 5.83478 -44.4552 -0.526727
5631 2 7.83355 -42.1484 -0.359102
5594 2 7.90106 -44.2578 -2.29228
5629 2 9.76835 -42.331 -2.42206
5592 2 9.75721 -44.2834 -0.533993
6731 2 11.5973 -42.2645 -0.495723
83 2 15.5311 -44.0743 -2.78966
118 2 15.3598 -42.2218 -0.653492
6695 2 11.7476 -44.2795 -2.69544
6729 2 13.5211 -42.26 -2.49416
6693 2 13.6953 -44.207 -0.617576
153 2 -9.70332 -38.4678 -2.68178
117 2 -9.50381 -40.3729 -0.797909
1254 2 -7.86328 -38.2878 -0.598438
1219 2 -7.47693 -40.2366 -2.96807
1252 2 -5.68436 -38.1801 -2.69527
1217 2 -5.6959 -40.0205 -0.598752
2353 2 -3.89235 -38.3618 -0.649009
2317 2 -3.66711 -40.026 -2.79621
2351 2 -1.85232 -38.2274 -2.79453
2315 2 -1.71462 -40.0931 -0.779641
3427 2 0.256184 -40.1889 -2.65756
3463 2 0.349786 -38.1806 -0.725599
3461 2 2.1153 -38.2906 -2.87675
3425 2 2.04129 -40.042 -0.611135
4563 2 3.83861 -38.2799 -0.585365
4527 2 3.90099 -40.1973 -2.71483
4561 2 6.04954 -38.4946 -2.7251
4525 2 5.77243 -40.1865 -0.631623
5668 2 7.86722 -38.6366 -0.711193
5632 2 7.86597 -40.5575 -2.60639
5666 2 9.70694 -38.5551 -2.769
5630 2 9.77416 -40.5202 -0.508918
6768 2 11.6083 -38.4454 -0.687154
6732 2 11.5577 -40.4266 -2.48814
155 2 15.3746 -38.5305 -0.616574
119 2 15.4121 -40.3852 -2.74071
6766 2 13.7486 -38.3902 -2.57615
6730 2 13.4055 -40.3654 -0.680556
189 2 -9.64463 -34.4611 -2.67704
154 2 -9.7159 -36.5242 -0.561707
1255 2 -7.95661 -36.4474 -2.59843
156 2 -11.346 -36.393 -2.59581
1291 2 -7.55426 -34.5023 -0.698619
1289 2 -5.83809 -34.4467 -2.65809
1253 2 -5.75734 -36.3078 -0.780241
2354 2 -3.74008 -36.4467 -2.71991
2389 2 -3.65091 -34.6035 -0.657918
2387 2 -1.60704 -34.6709 -2.52552
2352 2 -1.85776 -36.5168 -0.564619
3464 2 0.253401 -36.4993 -2.56613
3499 2 0.23645 -34.5044 -0.730499
3497 2 2.19376 -34.3994 -2.63653
3462 2 2.13141 -36.257 -0.566747
4599 2 4.13137 -34.376 -0.612345
4564 2 4.00628 -36.4212 -2.5949
4597 2 6.06409 -34.3686 -2.63706
4562 2 5.92481 -36.5702 -0.576237
5669 2 7.93909 -36.2748 -2.42564
5705 2 7.87141 -34.4046 -0.569375
5703 2 9.92315 -34.4515 -2.42268
5667 2 9.6416 -36.6119 -0.542753
6804 2 11.5698 -34.5902 -0.60069
6769 2 11.5907 -36.4823 -2.46499
191 2 15.5052 -34.3213 -0.785986
6802 2 13.7388 -34.467 -2.62721
6767 2 13.702 -36.356 -0.749905
228 2 -9.41 -30.6296 -2.6727
190 2 -9.43171 -32.5496 -0.768163
1327 2 -7.59239 -30.6579 -0.635654
1292 2 -7.47979 -32.5383 -2.77197
1325 2 -5.53546 -30.4181 -2.64418
1290 2 -5.7512 -32.7485 -0.68457
2390 2 -3.77107 -32.7774 -2.63156
2427 2 -3.58318 -30.5919 -0.621123
2425 2 -1.80959 -30.9188 -2.43557
2388 2 -1.73506 -32.7768 -0.4924
3500 2 0.182215 -32.5448 -2.6232
3536 2 0.173047 -30.8413 -0.583161
3534 2 2.04822 -30.6408 -2.63387
3498 2 2.10443 -32.5118 -0.601533
4637 2 3.97955 -30.4925 -0.590356
4600 2 3.90801 -32.2777 -2.56335
4635 2 5.91484 -30.5376 -2.38796
4598 2 6.00667 -32.474 -0.820258
5741 2 7.76953 -30.6839 -0.675667
5706 2 8.11292 -32.4903 -2.70405
5739 2 9.79475 -30.6392 -2.65627
5704 2 9.84195 -32.5898 -0.679724
6840 2 11.6278 -30.6158 -0.681034
192 2 15.4527 -32.4155 -2.76396
230 2 15.4889 -30.5724 -0.710381
6805 2 11.9409 -32.5176 -2.68328
6838 2 13.6544 -30.4581 -2.75704
6803 2 13.6379 -32.5261 -0.802612
266 2 -9.50941 -24.8282 -0.434016
265 2 -9.35435 -26.704 -2.51057
229 2 -9.62483 -28.748 -0.553504
231 2 -11.3868 -28.5995 -2.59622
1328 2 -7.62143 -28.7408 -2.56847
268 2 -11.2238 -24.9603 -2.56981
1364 2 -7.55296 -26.7289 -0.407608
1362 2 -5.77146 -26.7431 -2.29984
1326 2 -5.70319 -28.7934 -0.425789
2428 2 -3.7937 -28.4869 -2.45982
1363 2 -5.53787 -24.9253 -0.291682
2463 2 -1.88678 -24.9315 -0.487957
2464 2 -3.62838 -26.9018 -0.305004
2462 2 -1.80937 -26.6997 -2.48185
2426 2 -1.59479 -28.7862 -0.386392
3537 2 0.221946 -28.6834 -2.46845
3573 2 0.182119 -26.7526 -0.421347
3535 2 2.00005 -28.74 -0.608412
3571 2 2.1621 -26.7905 -2.5229
4638 2 3.98084 -28.8213 -2.56909
4673 2 3.86298 -26.7545 -0.430305
5779 2 7.62932 -24.9144 -2.38397
4671 2 5.9287 -26.717 -2.34877
4636 2 5.79986 -28.5484 -0.609704
5778 2 7.75659 -26.7654 -0.312575
5742 2 7.82165 -28.5759 -2.60531
6877 2 11.6908 -24.9683 -2.34531
5776 2 9.76738 -26.8981 -2.71942
5740 2 9.62008 -28.6838 -0.723442
6841 2 11.5639 -28.7596 -2.6351
5777 2 9.58119 -24.9633 -0.539488
267 2 15.5321 -26.8072 -0.664297
6875 2 13.72 -24.903 -0.665977
6876 2 11.7681 -26.8476 -0.683577
6839 2 13.6455 -28.691 -0.873073
6874 2 13.5681 -26.8047 -2.77146
47 2 -9.37716 -49.7862 1.44976
11 2 -9.46241 -51.9595 3.2747
49 2 -11.4144 -49.8177 3.25146
1148 2 -7.57631 -50.0156 3.42561
1113 2 -7.48428 -51.8584 1.59133
1146 2 -5.68255 -50.0434 1.31851
1111 2 -5.57099 -51.8574 3.52825
2245 2 -3.73986 -50.0227 3.44056
2209 2 -3.68851 -51.877 1.51517
2243 2 -1.75772 -49.9254 1.53582
2207 2 -1.78831 -51.7264 3.53004
2208 2 -3.63759 -53.7103 3.55834
3355 2 0.405482 -49.9015 3.56114
3320 2 0.271708 -51.8567 1.49795
3353 2 2.05121 -50.0011 1.56578
3318 2 2.22639 -51.8387 3.4923
4419 2 3.86991 -51.7301 1.57178
5525 2 7.77067 -53.6642 3.63197
4416 2 5.85003 -53.575 1.41063
4456 2 4.11822 -49.7866 3.35695
4454 2 5.92134 -49.9637 1.52053
4417 2 6.03718 -51.6382 3.52218
5561 2 7.80856 -49.8832 3.54778
5526 2 7.94626 -51.7152 1.57673
5559 2 9.77749 -49.6993 1.51997
5524 2 9.82144 -51.644 3.47399
6625 2 11.5176 -51.7111 1.66031
6624 2 11.8968 -53.5673 3.57933
13 2 15.46 -51.9585 1.53399
6661 2 11.7516 -49.7579 3.37328
6659 2 13.764 -49.8158 1.31492
6623 2 13.5857 -51.5035 3.42793
12 2 15.4145 -53.7046 3.50032
6622 2 13.6398 -53.6902 1.54015
84 2 -9.51387 -45.9696 1.27409
48 2 -9.50789 -47.975 3.36468
86 2 -11.4009 -46.0983 3.37755
1186 2 -7.60387 -45.9964 3.27283
50 2 -11.3441 -47.8639 1.44218
1149 2 -7.51932 -47.9654 1.33771
1184 2 -5.39385 -46.203 1.38883
2246 2 -3.77698 -48.2232 1.35259
1147 2 -5.67291 -48.1105 3.59839
2281 2 -3.59275 -46.1884 3.19218
2279 2 -1.79931 -46.3357 1.44833
2244 2 -1.69932 -48.1737 3.60578
3393 2 0.0501283 -45.988 3.40472
3356 2 0.220975 -48.0898 1.57911
3391 2 2.11643 -45.9856 1.21704
3354 2 1.95888 -47.948 3.48631
4492 2 3.94465 -45.9422 3.45238
4457 2 3.80621 -48.045 1.31311
4490 2 5.69468 -46.0198 1.55967
4455 2 5.97188 -47.9736 3.6017
5562 2 7.76436 -48.1287 1.58188
5597 2 7.81035 -46.1925 3.36949
5595 2 9.69584 -45.9854 1.40047
5560 2 9.85653 -47.9243 3.58588
6698 2 11.7181 -45.9698 3.36921
6662 2 11.7102 -47.9468 1.43506
6696 2 13.684 -46.1175 1.51338
6660 2 13.5182 -47.9512 3.4191
120 2 -9.47853 -42.1313 1.34301
85 2 -9.48478 -44.1486 3.21333
122 2 -11.2776 -42.1618 3.45291
1187 2 -7.48865 -44.1346 1.06457
1222 2 -7.57498 -42.223 3.27966
1220 2 -5.53632 -42.2107 1.19258
1185 2 -5.65488 -44.0836 3.39225
2282 2 -3.57813 -44.1645 1.38514
2320 2 -3.64059 -42.2103 3.33853
2318 2 -1.82028 -41.9257 1.31373
2280 2 -1.63238 -43.9792 3.16191
3394 2 0.0836761 -44.0368 1.26106
3430 2 0.202857 -42.1353 3.15176
3428 2 2.11607 -42.2548 1.30217
3392 2 2.00548 -44.1546 3.3759
4493 2 3.93748 -44.1344 1.45707
4530 2 3.95809 -42.1552 3.22411
4528 2 5.85939 -42.1798 1.26693
4491 2 6.04108 -44.0722 3.27883
5635 2 7.81978 -42.1993 3.32217
5598 2 7.80484 -44.2466 1.23143
5633 2 9.71555 -42.3598 1.59096
5596 2 9.79304 -44.0775 3.40019
6699 2 11.5801 -44.081 1.33743
6735 2 11.7703 -42.1987 3.54896
87 2 15.4507 -44.2027 1.61229
6733 2 13.6055 -42.3591 1.34343
6697 2 13.571 -44.1036 3.35513
157 2 -9.56582 -38.4803 1.36552
121 2 -9.4506 -40.1754 3.40225
1223 2 -7.59914 -40.2707 1.369
1258 2 -7.53797 -38.3007 3.3608
1256 2 -5.64947 -38.1852 1.26137
2357 2 -3.73114 -38.5233 3.30307
1221 2 -5.60909 -40.4252 3.28511
2321 2 -3.72416 -40.2512 1.18648
2355 2 -1.962 -38.363 1.2468
2319 2 -1.67254 -40.2097 3.33381
3467 2 0.0372757 -38.2503 3.33187
3431 2 -0.0267021 -40.157 1.28612
3465 2 2.02594 -38.2175 1.3813
3429 2 2.02855 -40.1677 3.04671
4531 2 3.92078 -40.237 1.24592
4567 2 3.96274 -38.4189 3.25123
4565 2 5.78092 -38.2427 1.41657
4529 2 5.9967 -40.4385 3.11661
5636 2 7.75291 -40.2445 1.29816
5672 2 7.80129 -38.2511 3.25066
5670 2 9.78237 -38.4624 1.40726
5634 2 9.72669 -40.18 3.43685
6772 2 12.0033 -38.4165 3.25414
123 2 15.4486 -40.4201 1.25649
6736 2 11.7827 -40.3985 1.49465
6770 2 13.7253 -38.5423 1.42732
6734 2 13.8044 -40.4341 3.43607
159 2 15.4837 -38.4606 3.44964
193 2 -9.63689 -34.4119 1.39007
158 2 -9.51392 -36.5808 3.22058
1259 2 -7.69788 -36.2727 1.32477
1295 2 -7.60715 -34.5701 3.40569
1293 2 -5.46707 -34.5242 1.32089
1257 2 -5.70037 -36.4365 3.31294
2358 2 -3.88371 -36.5714 1.47915
2394 2 -3.65457 -34.5984 3.40765
2392 2 -1.89803 -34.5727 1.41943
2356 2 -1.85807 -36.3768 3.35541
3503 2 0.00125941 -34.3802 3.3451
3468 2 0.142788 -36.2093 1.42335
3501 2 2.10175 -34.3785 1.62327
3466 2 2.07566 -36.2615 3.41972
4568 2 3.99829 -36.3202 1.38769
4601 2 5.96262 -34.5077 1.26171
4566 2 5.85025 -36.3463 3.43664
5673 2 7.80832 -36.499 1.29823
5709 2 7.70874 -34.6705 3.44315
4603 2 4.22319 -34.3932 3.27686
5707 2 9.82971 -34.4663 1.3245
5671 2 9.59715 -36.4457 3.35525
6808 2 11.7195 -34.5711 3.31008
6773 2 11.8189 -36.6108 1.28226
160 2 15.4658 -36.4694 1.4245
6806 2 13.5419 -34.4378 1.18698
6771 2 13.7255 -36.5206 3.36386
195 2 15.3574 -34.7043 3.46621
232 2 -9.7001 -30.7061 1.39169
194 2 -9.58706 -32.6845 3.2783
1331 2 -7.65574 -30.672 3.1618
1296 2 -7.54834 -32.6677 1.25518
1329 2 -5.59395 -30.9281 1.30351
1294 2 -5.68904 -32.7206 3.49872
1330 2 -5.59624 -29.0368 3.45387
2431 2 -3.6319 -30.66 3.442
2395 2 -3.61221 -32.5556 1.48703
2429 2 -1.67089 -30.7755 1.42046
2393 2 -1.7363 -32.5305 3.57762
3504 2 0.0704024 -32.6308 1.48012
3540 2 0.315672 -30.6034 3.53183
3538 2 2.22312 -30.7422 1.29847
3502 2 2.14074 -32.6855 3.42837
4641 2 3.95612 -30.7857 3.30106
4604 2 4.14529 -32.4709 1.36984
4639 2 5.87533 -30.3887 1.35735
4602 2 5.97228 -32.4241 3.25951
5710 2 7.79868 -32.7303 1.29556
5745 2 7.95202 -30.6927 3.3109
5743 2 9.85154 -30.7229 1.36463
5708 2 9.61257 -32.8143 3.36991
6844 2 11.585 -30.7611 3.45517
6809 2 11.6491 -32.5591 1.48942
234 2 15.3718 -30.7063 3.33695
196 2 15.5273 -32.4477 1.1838
6842 2 13.4197 -30.4073 1.43162
6807 2 13.4801 -32.5709 3.23243
270 2 -9.59818 -26.826 1.32823
233 2 -9.66049 -28.7469 3.35249
1368 2 -7.58698 -27.034 3.4796
1332 2 -7.82304 -28.7921 1.45198
271 2 -9.43478 -25.0261 3.39014
1369 2 -7.59738 -25.0811 1.50281
1367 2 -5.50672 -25.0809 3.53354
1366 2 -5.64692 -27.1163 1.7252
2432 2 -3.65697 -28.8645 1.44645
2468 2 -3.6132 -27.1559 3.66626
2466 2 -1.86226 -26.8283 1.56534
2430 2 -1.6259 -28.8369 3.28952
3577 2 0.0195737 -26.73 3.50026
3541 2 0.291255 -28.8089 1.32664
3575 2 1.83913 -26.5913 1.43118
3539 2 2.10979 -28.5531 3.31836
4642 2 3.81457 -28.5953 1.34015
4677 2 4.11378 -26.5404 3.64152
4675 2 5.83003 -26.6042 1.42832
4640 2 5.7288 -28.7392 3.44114
5746 2 7.76705 -28.6869 1.64201
6881 2 11.6877 -25.0516 1.45457
5782 2 7.87027 -26.5397 3.48719
5744 2 9.75109 -28.7854 3.3432
5780 2 9.74914 -26.8336 1.65133
6880 2 11.664 -26.734 3.64545
235 2 15.5057 -28.7595 1.47486
272 2 15.4453 -26.7475 3.43957
6845 2 11.7134 -28.7209 1.55821
6878 2 13.6723 -26.7681 1.42578
6843 2 13.488 -28.726 3.64326
6879 2 13.6759 -24.8054 3.40619
52 2 -9.51489 -50.1128 5.50472
17 2 -11.2662 -51.733 5.3206
1117 2 -7.5911 -51.7583 5.41439
1150 2 -5.62411 -49.8635 5.39386
2213 2 -3.74859 -51.8025 5.44378
2210 2 -1.62695 -53.566 5.6832
2247 2 -1.68742 -50.0548 5.5176
3324 2 0.223842 -51.7163 5.63701
3357 2 2.15242 -49.7031 5.56018
4424 2 3.97339 -51.5885 5.4166
3321 2 2.01496 -53.7122 5.60472
4421 2 5.90025 -53.6078 5.4819
4458 2 5.95661 -49.7481 5.54885
5527 2 9.90784 -53.5933 5.54638
5530 2 7.92591 -51.6512 5.40871
5563 2 9.79439 -49.7942 5.40615
6629 2 11.5987 -51.6737 5.38402
6626 2 13.6045 -53.5687 5.54451
6663 2 13.4263 -49.8744 5.5914
88 2 -9.59121 -46.163 5.30976
1153 2 -7.66497 -48.0888 5.28565
53 2 -9.50114 -48.0314 7.3131
1188 2 -5.57051 -46.0303 5.2063
1151 2 -5.53955 -47.8305 7.24892
1190 2 -7.54478 -46.0158 7.26031
2250 2 -3.46503 -48.097 5.29909
2284 2 -1.96715 -45.9461 5.32312
3360 2 0.0621281 -47.812 5.58734
3395 2 2.11882 -45.9983 5.56275
4461 2 3.97019 -47.7653 5.58539
4494 2 5.73502 -46.0506 5.49677
5566 2 7.76153 -47.7258 5.68855
5599 2 9.72783 -45.9112 5.33351
5564 2 9.92519 -47.819 7.35863
6702 2 11.6677 -45.9741 7.35937
6666 2 11.8329 -47.7469 5.43598
55 2 15.5309 -48.0166 5.38983
6700 2 13.7306 -46.0749 5.3473
124 2 -9.32256 -41.955 5.24995
1191 2 -7.8061 -44.1808 5.18559
91 2 -11.4198 -44.1646 5.17468
89 2 -9.34965 -44.1087 7.12679
1224 2 -5.59703 -42.2279 5.4688
2287 2 -3.80483 -44.0675 5.28304
1189 2 -5.71907 -44.0017 7.30031
2322 2 -1.83088 -42.2704 5.53947
3398 2 0.153563 -44.1557 5.52989
3432 2 1.85266 -42.1766 5.53124
4497 2 3.84981 -43.9801 5.37359
4532 2 6.05097 -42.152 5.41795
4534 2 3.98482 -42.1591 7.25043
4495 2 5.87196 -44.041 7.31602
5602 2 7.9883 -44.0094 5.42552
5637 2 9.65864 -42.1454 5.30066
6703 2 11.7526 -44.1224 5.6128
6737 2 13.7255 -42.1145 5.54474
126 2 15.3731 -42.2782 7.23023
161 2 -9.46667 -38.4228 5.27706
127 2 -11.4252 -40.3865 5.59535
1262 2 -7.67349 -38.1581 7.25761
1227 2 -7.35591 -40.2782 5.32374
1260 2 -5.63131 -38.1687 5.24082
1225 2 -5.58982 -40.1075 7.35615
2325 2 -3.68312 -40.3534 5.41289
2359 2 -1.65026 -38.3522 5.16471
2323 2 -1.70525 -40.235 7.26
4688 1 3.54565 -40.5489 3.84966
3435 2 0.275077 -40.2212 5.24011
3469 2 2.03246 -38.3957 5.24466
3471 2 0.140303 -38.2605 7.23995
3433 2 2.0766 -40.1593 7.35379
4535 2 4.08114 -40.47 5.38465
4569 2 5.94674 -38.3368 5.43288
5640 2 7.73573 -40.2164 5.19022
4533 2 5.80035 -40.3062 7.3389
5674 2 9.74841 -38.321 5.17986
1268 1 11.4984 -40.1218 7.34076
5638 2 9.64449 -40.1425 7.13474
6740 2 11.6992 -40.1884 5.47284
6774 2 13.5406 -38.4389 5.48545
197 2 -9.60049 -34.6186 5.28211
1263 2 -7.63678 -36.4173 5.19687
1297 2 -5.64647 -34.5831 5.33465
1261 2 -5.6761 -36.546 7.22767
2362 2 -3.62905 -36.5086 5.28069
2396 2 -1.75348 -34.523 5.40541
2360 2 -1.73629 -36.4209 7.29006
3472 2 0.158844 -36.3028 5.28036
3505 2 2.28098 -34.5021 5.47812
4572 2 3.95561 -36.2505 5.28128
3507 2 0.347304 -34.4297 7.33718
4605 2 5.80337 -34.4683 5.47424
5677 2 7.67468 -36.5047 5.66626
5711 2 9.67299 -34.671 5.37127
6777 2 11.6681 -36.4577 5.25387
164 2 15.4576 -36.723 5.56056
6810 2 13.4856 -34.5172 5.43043
6812 2 11.716 -34.511 7.2761
236 2 -9.64084 -30.7929 5.25226
1300 2 -7.70448 -32.8096 5.18244
1336 2 -7.70617 -28.9712 5.36827
1333 2 -5.61379 -30.8689 5.43949
2399 2 -3.76585 -32.6379 5.59149
1335 2 -7.49247 -30.7309 7.31154
2433 2 -1.78515 -30.6342 5.36123
2397 2 -1.83634 -32.6406 7.32362
3508 2 0.267195 -32.6468 5.41477
3542 2 2.10074 -30.8829 5.42595
4608 2 4.05871 -32.4496 5.32871
4643 2 5.88254 -30.6154 5.36281
5714 2 7.86631 -32.6352 5.51033
5747 2 9.62418 -30.4359 5.38765
6813 2 11.6401 -32.5819 5.29406
5749 2 7.87508 -30.6075 7.24511
200 2 15.478 -32.5475 5.29752
6846 2 13.5173 -30.6931 5.38379
238 2 15.5436 -30.8123 7.28761
274 2 -9.46131 -27.0111 5.39701
237 2 -9.66595 -28.8091 7.24178
1371 2 -5.68338 -24.9639 7.31741
1373 2 -7.5489 -25.0232 5.5369
1370 2 -5.65615 -26.915 5.50673
3582 2 0.067903 -24.8849 5.30513
2474 2 -3.69554 -24.8998 5.2921
2436 2 -3.54453 -28.8431 5.59593
2471 2 -1.86054 -26.8165 5.49853
2473 2 -3.65995 -26.7297 7.28912
3545 2 0.423673 -28.654 5.347
3579 2 2.11535 -26.6277 5.29593
3581 2 0.164736 -26.6737 7.25285
4683 2 4.06445 -24.8382 5.64294
5750 2 7.68491 -28.5619 5.16433
4646 2 4.01627 -28.8398 5.41871
4680 2 5.90006 -26.7555 5.57659
5748 2 9.78313 -28.6316 7.33401
5784 2 9.78073 -26.7737 5.52588
6849 2 11.6055 -28.7522 5.36054
6885 2 11.8099 -24.9918 5.6862
239 2 15.5457 -28.8031 5.31092
6882 2 13.6724 -26.8585 5.56717
18 2 -9.36913 -53.5626 9.52678
15 2 -9.36724 -52.0553 7.3762
56 2 -9.65373 -49.9951 9.43339
21 2 -11.4277 -51.7999 9.56144
1152 2 -7.59278 -50.0078 7.38326
54 2 -11.3273 -49.994 7.43608
1115 2 -5.58751 -51.7961 7.52233
1121 2 -7.524 -51.9928 9.4678
1154 2 -5.58587 -49.9588 9.44237
2249 2 -3.76153 -49.7487 7.41702
2211 2 -1.95632 -51.8178 7.57199
2217 2 -3.70678 -51.7792 9.63083
2251 2 -1.88094 -50.0147 9.54348
3359 2 0.0744266 -49.9335 7.54376
3328 2 0.0415423 -51.8256 9.37464
3325 2 2.28724 -53.7052 9.46939
3322 2 2.32617 -51.6894 7.54116
3361 2 2.05509 -49.8485 9.4409
4425 2 5.97238 -53.6082 9.42033
4423 2 4.08659 -53.5184 7.52675
4422 2 5.94884 -51.6041 7.37706
4428 2 4.1181 -51.6769 9.45196
4460 2 4.1192 -49.6891 7.46302
4462 2 6.02396 -49.7852 9.45661
5534 2 7.70286 -51.7125 9.58391
5531 2 9.89242 -53.6798 9.56932
5529 2 7.90552 -53.4866 7.37672
5565 2 8.07543 -49.7232 7.45582
5528 2 9.81066 -51.7314 7.51756
6665 2 11.5918 -49.5915 7.60056
5567 2 9.91019 -49.7724 9.60088
16 2 15.4405 -53.4445 7.57175
6633 2 11.7351 -51.7019 9.68131
6627 2 13.6462 -51.73 7.48251
6667 2 13.6879 -49.5949 9.46518
6630 2 13.6154 -53.4482 9.61797
92 2 -9.31105 -46.1881 9.28553
2408 1 -7.93077 -46.6052 9.81505
1157 2 -7.64861 -48.1947 9.21518
90 2 -11.3335 -45.8707 7.474
59 2 -11.1955 -47.8987 9.32862
1192 2 -5.85025 -46.1155 9.27026
2254 2 -3.84476 -47.893 9.46527
2286 2 -3.70601 -45.9704 7.4687
2248 2 -1.78964 -47.7478 7.58104
2288 2 -1.87435 -46.0187 9.46356
3364 2 0.0942373 -48.2649 9.2871
3358 2 2.08789 -47.7853 7.57132
3397 2 0.129479 -46.0886 7.53069
3399 2 1.93456 -46.054 9.60827
4496 2 3.94804 -45.8558 7.48073
4465 2 4.06531 -47.7966 9.59526
4459 2 5.87973 -47.8229 7.5259
4498 2 6.06276 -45.8863 9.31373
5570 2 7.87732 -48.0364 9.48954
5601 2 7.91945 -45.8337 7.46158
5603 2 9.71518 -46.0256 9.54709
6670 2 11.6688 -47.822 9.60981
6664 2 13.8696 -47.8824 7.51867
6704 2 13.5197 -46.2271 9.72948
128 2 -9.62727 -42.2112 9.26164
95 2 -11.1626 -44.2408 9.37301
2324 2 -3.75993 -42.0982 7.50786
1226 2 -7.43561 -42.1055 7.42296
1195 2 -7.54604 -44.1137 9.33547
1228 2 -5.76186 -42.1209 9.38405
2285 2 -1.76943 -44.1492 7.43222
3434 2 -0.00681124 -42.1419 7.56472
2291 2 -3.69419 -44.1577 9.5001
2326 2 -2.03618 -42.1084 9.48466
3402 2 0.00160655 -44.17 9.4538
3396 2 2.04504 -44.1522 7.41151
3436 2 2.11284 -42.2828 9.35657
4501 2 4.02284 -44.1085 9.37386
4536 2 5.78566 -42.0855 9.29905
5606 2 7.8539 -44.1047 9.60724
5639 2 7.94238 -42.1538 7.56206
5600 2 9.90865 -43.9977 7.63442
5641 2 9.90989 -42.2781 9.59773
6739 2 11.6962 -42.0701 7.6766
6701 2 13.6383 -44.1651 7.61807
6707 2 11.7144 -44.2116 9.72481
6765 1 14.4386 -45.0571 10.4384
6741 2 13.6047 -42.1942 9.54889
163 2 -11.2054 -38.4073 7.41595
125 2 -9.33341 -40.2241 7.42133
165 2 -9.46962 -38.4008 9.58003
1231 2 -7.66339 -40.1036 9.43049
1264 2 -5.76902 -38.3056 9.58262
2329 2 -3.82069 -40.0245 9.40276
2361 2 -3.67783 -38.3919 7.43585
2363 2 -1.7979 -38.3093 9.27953
3439 2 0.04012 -40.1516 9.54546
4571 2 3.91695 -38.278 7.64448
3473 2 2.08051 -38.4216 9.6585
4539 2 3.86384 -40.3139 9.44489
4573 2 5.88907 -38.4452 9.46277
5644 2 7.80532 -40.3252 9.34815
6776 2 11.6897 -38.1698 7.45783
5676 2 7.83737 -38.5059 7.46403
5679 2 9.80381 -38.3054 9.50766
6744 2 11.5573 -40.1557 9.29574
131 2 15.4081 -40.3407 9.19161
6738 2 13.5228 -40.0748 7.53052
6778 2 13.7123 -38.195 9.25499
162 2 -9.4986 -36.3168 7.43823
201 2 -9.63804 -34.5004 9.58044
1267 2 -7.75125 -36.4522 9.2996
168 2 -11.4031 -36.5669 9.35454
1299 2 -7.45703 -34.4692 7.56965
1301 2 -5.57299 -34.4725 9.41521
2366 2 -3.75908 -36.3978 9.44698
2398 2 -3.92139 -34.7219 7.45563
2400 2 -1.91758 -34.6381 9.3021
3476 2 0.269057 -36.4164 9.28136
3470 2 2.15365 -36.5609 7.52274
3509 2 2.31964 -34.4594 9.54712
4576 2 3.94661 -36.4495 9.56561
4607 2 4.19285 -34.5495 7.59094
4570 2 5.75743 -36.4403 7.44275
4609 2 5.94107 -34.6303 9.63192
5682 2 7.74225 -36.4869 9.50876
5713 2 7.65075 -34.5986 7.56261
5675 2 9.75742 -36.3128 7.6282
5715 2 9.7379 -34.3437 9.30921
6781 2 11.6099 -36.0331 9.5142
199 2 15.474 -34.4425 7.49308
6775 2 13.6809 -36.318 7.38071
6814 2 13.4625 -34.2797 9.443
198 2 -9.47874 -32.6385 7.42897
240 2 -9.51758 -30.6999 9.31521
1304 2 -7.59398 -32.5317 9.40366
1298 2 -5.52531 -32.6803 7.48246