LAMMPS (29 Aug 2024 - Update 2)
Lattice spacing in x,y,z = 3.632 3.632 3.632
Created orthogonal box = (0 0 0) to (29.056 29.056 29.056)
  1 by 1 by 1 MPI processor grid
Created 2048 atoms
  using lattice units in orthogonal box = (0 0 0) to (29.056 29.056 29.056)
  create_atoms CPU = 0.000 seconds
Neighbor list info ...
  update: every = 1 steps, delay = 0 steps, check = yes
  max neighbors/atom: 2000, page size: 100000
  master list distance cutoff = 7.50679
  ghost atom cutoff = 7.50679
  binsize = 3.753395, bins = 8 8 8
  1 neighbor lists, perpetual/occasional/extra = 1 0 0
  (1) pair eam/alloy, perpetual
      attributes: half, newton on
      pair build: half/bin/atomonly/newton
      stencil: half/bin/3d
      bin: standard
Setting up Verlet run ...
  Unit style    : metal
  Current step  : 0
  Time step     : 0.001
Per MPI rank memory allocation (min/avg/max) = 3.962 | 3.962 | 3.962 Mbytes
   Step          Temp          PotEng         KinEng         TotEng         Press          Volume           Lx             Ly             Lz      
         0   600           -7248.2786      158.75731     -7089.5213     -12390.75       24530.561      29.056         29.056         29.056       
       100   267.49667     -7162.647       70.778418     -7091.8686      7938.2559      24410.565      29.008545      29.008545      29.008545    
       200   320.2         -7172.8664      84.723486     -7088.1429      405.09878      24506.622      29.046545      29.046545      29.046545    
       300   306.75144     -7168.329       81.165056     -7087.164       4944.6644      24447.568      29.023195      29.023195      29.023195    
       400   307.56607     -7170.4743      81.380602     -7089.0937      2945.7001      24473.566      29.033479      29.033479      29.033479    
       500   295.62552     -7169.869       78.221188     -7091.6479      212.39545      24518.683      29.05131       29.05131       29.05131     
       600   298.41498     -7170.4696      78.959265     -7091.5103      169.65272      24521.796      29.052539      29.052539      29.052539    
       700   298.04921     -7169.7873      78.862483     -7090.9248      568.83788      24514.598      29.049696      29.049696      29.049696    
       800   314.61665     -7172.2623      83.246154     -7089.0161      36.751133      24520.152      29.05189       29.05189       29.05189     
       900   302.42134     -7168.4314      80.019332     -7088.4121     -227.40381      24533.887      29.057313      29.057313      29.057313    
      1000   304.28274     -7169.0549      80.511849     -7088.543      -623.29429      24537.805      29.05886       29.05886       29.05886     
      1100   294.35716     -7167.7789      77.885584     -7089.8934      664.4429       24519.732      29.051724      29.051724      29.051724    
      1200   288.241       -7167.9434      76.267276     -7091.6761      125.66289      24525.991      29.054195      29.054195      29.054195    
      1300   304.00475     -7171.6528      80.438295     -7091.2145      283.53712      24515.202      29.049934      29.049934      29.049934    
      1400   294.74358     -7168.331       77.987831     -7090.3432      1092.0937      24511.012      29.048279      29.048279      29.048279    
      1500   304.02182     -7168.8318      80.44281      -7088.389      -430.93416      24537.532      29.058752      29.058752      29.058752    
      1600   300.24352     -7167.1947      79.443089     -7087.7516     -1216.9996      24556.668      29.066304      29.066304      29.066304    
      1700   296.03287     -7167.5968      78.328971     -7089.2678     -3145.3916      24587.141      29.078322      29.078322      29.078322    
      1800   295.34182     -7170.6047      78.146121     -7092.4585     -3555.6412      24582.709      29.076575      29.076575      29.076575    
      1900   297.77596     -7171.1801      78.790183     -7092.3899     -1533.7973      24547.221      29.062576      29.062576      29.062576    
      2000   296.78154     -7169.1188      78.527065     -7090.5917      631.11336      24517.025      29.050655      29.050655      29.050655    
      2100   301.89926     -7168.914       79.881191     -7089.0329      399.8752       24519.418      29.0516        29.0516        29.0516      
      2200   314.76304     -7172.017       83.284888     -7088.7321      1920.6247      24486.234      29.038488      29.038488      29.038488    
      2300   312.37055     -7171.6336      82.651846     -7088.9817      3249.2586      24465.341      29.030226      29.030226      29.030226    
      2400   296.50418     -7168.3518      78.453676     -7089.8981      2044.9728      24493.173      29.041231      29.041231      29.041231    
      2500   301.34574     -7169.2557      79.734732     -7089.521       1125.7826      24508.846      29.047424      29.047424      29.047424    
      2600   292.7536      -7168.5774      77.461289     -7091.1161      444.77786      24522.555      29.052839      29.052839      29.052839    
      2700   287.8876      -7169.6343      76.173768     -7093.4605     -1552.475       24550.927      29.064039      29.064039      29.064039    
      2800   290.75176     -7169.2777      76.931613     -7092.3461     -2660.0921      24573.076      29.072776      29.072776      29.072776    
      2900   296.01369     -7167.6231      78.323895     -7089.2992     -2845.4219      24583.257      29.076791      29.076791      29.076791    
      3000   300.78437     -7168.5842      79.586196     -7088.998      -2180.2111      24568.261      29.070877      29.070877      29.070877    
      3100   296.38567     -7167.7389      78.42232      -7089.3166     -567.8393       24542.589      29.060748      29.060748      29.060748    
      3200   305.00646     -7169.9981      80.703343     -7089.2948     -32.057669      24526.964      29.05458       29.05458       29.05458     
      3300   295.22007     -7170.1477      78.113907     -7092.0338      1594.5318      24496.369      29.042494      29.042494      29.042494    
      3400   301.20565     -7173.1187      79.697665     -7093.421       1659.7755      24486.807      29.038714      29.038714      29.038714    
      3500   304.21907     -7171.9635      80.495001     -7091.4685      1320.7079      24496.569      29.042573      29.042573      29.042573    
      3600   301.39283     -7168.935       79.74719      -7089.1878      1563.6271      24503.252      29.045214      29.045214      29.045214    
      3700   296.95916     -7167.6964      78.574064     -7089.1224      301.79945      24526.744      29.054493      29.054493      29.054493    
      3800   307.16588     -7170.41        81.274713     -7089.1353     -1324.0432      24549.402      29.063437      29.063437      29.063437    
      3900   296.3518      -7169.6347      78.413358     -7091.2213     -821.95315      24540.432      29.059897      29.059897      29.059897    
      4000   300.31741     -7173.579       79.462641     -7094.1163     -496.34161      24521.229      29.052315      29.052315      29.052315    
      4100   296.38827     -7171.7185      78.423007     -7093.2954      1369.5693      24496.172      29.042416      29.042416      29.042416    
      4200   296.97068     -7169.4442      78.577111     -7090.8671      1711.7489      24497.916      29.043105      29.043105      29.043105    
      4300   297.20822     -7168.7079      78.639963     -7090.068       1093.8486      24510.359      29.048021      29.048021      29.048021    
      4400   307.77363     -7170.0029      81.435522     -7088.5674      823.93461      24514.589      29.049692      29.049692      29.049692    
      4500   303.37936     -7169.6371      80.272819     -7089.3643     -818.61209      24541.655      29.060379      29.060379      29.060379    
      4600   293.37004     -7169.6894      77.624398     -7092.065      -1013.6096      24543.998      29.061304      29.061304      29.061304    
      4700   292.75231     -7171.8916      77.46095      -7094.4306     -1799.9549      24549.469      29.063464      29.063464      29.063464    
      4800   295.51605     -7171.079       78.192221     -7092.8868     -1629.5328      24550.265      29.063777      29.063777      29.063777    
      4900   299.2148      -7167.9234      79.170895     -7088.7525     -869.20921      24548.15       29.062943      29.062943      29.062943    
      5000   302.00897     -7168.3815      79.91022      -7088.4713      403.78989      24525.408      29.053965      29.053965      29.053965    
Loop time of 11.6301 on 1 procs for 5000 steps with 2048 atoms

Performance: 37.145 ns/day, 0.646 hours/ns, 429.917 timesteps/s, 880.470 katom-step/s
99.4% CPU use with 1 MPI tasks x no OpenMP threads

MPI task timing breakdown:
Section |  min time  |  avg time  |  max time  |%varavg| %total
---------------------------------------------------------------
Pair    | 11.263     | 11.263     | 11.263     |   0.0 | 96.84
Neigh   | 0          | 0          | 0          |   0.0 |  0.00
Comm    | 0.098738   | 0.098738   | 0.098738   |   0.0 |  0.85
Output  | 0.0012187  | 0.0012187  | 0.0012187  |   0.0 |  0.01
Modify  | 0.24463    | 0.24463    | 0.24463    |   0.0 |  2.10
Other   |            | 0.02301    |            |       |  0.20

Nlocal:           2048 ave        2048 max        2048 min
Histogram: 1 0 0 0 0 0 0 0 0 0
Nghost:           5765 ave        5765 max        5765 min
Histogram: 1 0 0 0 0 0 0 0 0 0
Neighs:         143360 ave      143360 max      143360 min
Histogram: 1 0 0 0 0 0 0 0 0 0

Total # of neighbors = 143360
Ave neighs/atom = 70
Neighbor list builds = 0
Dangerous builds = 0
Setting up Verlet run ...
  Unit style    : metal
  Current step  : 5000
  Time step     : 0.001
Per MPI rank memory allocation (min/avg/max) = 3.962 | 3.962 | 3.962 Mbytes
   Step          Temp          PotEng         KinEng         TotEng         Press          Volume           Lx             Ly             Lz      
      5000   302.00897     -7168.3815      79.91022      -7088.4713      403.78989      24525.408      29.053965      29.053965      29.053965    
      5100   321.01792     -7165.0796      84.939902     -7080.1397     -420.13841      24555.327      29.065775      29.065775      29.065775    
      5200   339.20678     -7157.6864      89.752593     -7067.9338      139.06292      24574.717      29.073424      29.073424      29.073424    
      5300   361.26929     -7150.6897      95.590235     -7055.0995      1825.1051      24578.203      29.074798      29.074798      29.074798    
      5400   388.13812     -7146.0504      102.69961     -7043.3508      762.88633      24617.564      29.090311      29.090311      29.090311    
      5500   402.16973     -7140.5061      106.41231     -7034.0938      255.25586      24650.785      29.103391      29.103391      29.103391    
      5600   413.10674     -7138.0377      109.30619     -7028.7315      655.14209      24653.994      29.104653      29.104653      29.104653    
      5700   413.72364     -7139.07        109.46942     -7029.6006      131.93904      24660.669      29.10728       29.10728       29.10728     
      5800   394.9414      -7139.4404      104.49972     -7034.9407     -1291.6018      24680.095      29.11492       29.11492       29.11492     
      5900   397.51825     -7144.2397      105.18155     -7039.0582     -3739.7824      24705.498      29.124907      29.124907      29.124907    
      6000   374.21586     -7139.8556      99.015838     -7040.8398     -3698.7845      24716.763      29.129332      29.129332      29.129332    
      6100   387.31848     -7139.8854      102.48273     -7037.4027     -4105.2997      24725.696      29.132841      29.132841      29.132841    
      6200   400.4528      -7139.5274      105.95802     -7033.5694     -3363.1649      24716.063      29.129057      29.129057      29.129057    
      6300   393.75197     -7136.4266      104.18501     -7032.2416     -1410.9352      24690.711      29.119095      29.119095      29.119095    
      6400   401.24744     -7138.858       106.16827     -7032.6897      533.02001      24651.489      29.103667      29.103667      29.103667    
      6500   399.33344     -7141.458       105.66184     -7035.7962      1720.1813      24619.275      29.090984      29.090984      29.090984    
      6600   389.74039     -7142.0112      103.12356     -7038.8876      2330.0388      24603.729      29.08486       29.08486       29.08486     
      6700   391.37526     -7142.38        103.55614     -7038.8238      3531.9131      24582.605      29.076534      29.076534      29.076534    
      6800   393.57638     -7140.547       104.13854     -7036.4084      3273.3177      24594.339      29.081159      29.081159      29.081159    
      6900   405.9406      -7140.4081      107.41006     -7032.998       3321.3241      24594.691      29.081298      29.081298      29.081298    
      7000   402.34278     -7138.1387      106.4581      -7031.6806      5189.2681      24573.098      29.072785      29.072785      29.072785    
      7100   409.51923     -7142.5941      108.35695     -7034.2372      3541.1666      24584.671      29.077348      29.077348      29.077348    
      7200   398.4514      -7142.6943      105.42845     -7037.2659      2145.7501      24606.511      29.085956      29.085956      29.085956    
      7300   374.86242     -7137.4384      99.186916     -7038.2514      1542.2931      24631.942      29.095973      29.095973      29.095973    
      7400   396.8486      -7140.5369      105.00436     -7035.5325      349.60504      24646.451      29.101685      29.101685      29.101685    
      7500   404.02058     -7138.1107      106.90203     -7031.2087      674.69748      24650.43       29.103251      29.103251      29.103251    
      7600   410.55531     -7138.4641      108.63109     -7029.833       1655.5793      24634.231      29.096874      29.096874      29.096874    
      7700   403.57064     -7141.8412      106.78298     -7035.0582      1908.3509      24614.765      29.089208      29.089208      29.089208    
      7800   407.92584     -7144.7209      107.93535     -7036.7855      2029.5507      24604.09       29.085002      29.085002      29.085002    
      7900   400.79778     -7142.8009      106.04929     -7036.7516      2056.4847      24609.445      29.087112      29.087112      29.087112    
      8000   399.9367      -7141.0117      105.82146     -7035.1903      1391.3139      24626.486      29.093825      29.093825      29.093825    
      8100   398.44464     -7138.698       105.42667     -7033.2713      892.93304      24644.404      29.100879      29.100879      29.100879    
      8200   401.85731     -7139.5802      106.32964     -7033.2505     -123.46186      24658.845      29.106562      29.106562      29.106562    
      8300   392.68957     -7140.3852      103.9039      -7036.4813      327.30036      24647.96       29.102278      29.102278      29.102278    
      8400   387.0455      -7142.6194      102.4105      -7040.2089     -485.10602      24651.621      29.103719      29.103719      29.103719    
      8500   398.04993     -7144.4881      105.32223     -7039.1659     -640.50662      24650.233      29.103173      29.103173      29.103173    
      8600   394.45083     -7140.7395      104.36992     -7036.3695      85.89823       24650.255      29.103182      29.103182      29.103182    
      8700   393.24414     -7139.4224      104.05064     -7035.3717     -169.53307      24658.704      29.106507      29.106507      29.106507    
      8800   386.98986     -7138.1561      102.39578     -7035.7603     -730.57344      24670.687      29.11122       29.11122       29.11122     
      8900   399.32364     -7140.2051      105.65925     -7034.5458      208.41678      24650.49       29.103274      29.103274      29.103274    
      9000   413.33831     -7141.6378      109.36746     -7032.2703      1096.8487      24634.137      29.096837      29.096837      29.096837    
      9100   414.76742     -7140.454       109.7456      -7030.7084      1481.6407      24630.045      29.095226      29.095226      29.095226    
      9200   400.23867     -7139.828       105.90136     -7033.9266      1860.8205      24623.603      29.092689      29.092689      29.092689    
      9300   395.96435     -7142.0076      104.77039     -7037.2372      1030.6332      24628.225      29.094509      29.094509      29.094509    
      9400   395.68122     -7141.8505      104.69548     -7037.155       1273.8549      24624.28       29.092956      29.092956      29.092956    
      9500   403.8063      -7142.18        106.84534     -7035.3346      863.63631      24630.99       29.095598      29.095598      29.095598    
      9600   411.17865     -7139.2513      108.79603     -7030.4553      1134.8615      24640.939      29.099515      29.099515      29.099515    
      9700   407.03396     -7137.7453      107.69936     -7030.0459      584.44481      24652.827      29.104194      29.104194      29.104194    
      9800   407.00984     -7140.3865      107.69298     -7032.6935      544.34339      24644.925      29.101084      29.101084      29.101084    
      9900   400.35141     -7140.6107      105.93119     -7034.6795      816.47177      24638.8        29.098673      29.098673      29.098673    
     10000   403.72179     -7142.869       106.82298     -7036.046       29.8655        24643.764      29.100627      29.100627      29.100627    
Loop time of 14.7696 on 1 procs for 5000 steps with 2048 atoms

Performance: 29.249 ns/day, 0.821 hours/ns, 338.533 timesteps/s, 693.316 katom-step/s
99.0% CPU use with 1 MPI tasks x no OpenMP threads

MPI task timing breakdown:
Section |  min time  |  avg time  |  max time  |%varavg| %total
---------------------------------------------------------------
Pair    | 14.398     | 14.398     | 14.398     |   0.0 | 97.48
Neigh   | 0          | 0          | 0          |   0.0 |  0.00
Comm    | 0.098846   | 0.098846   | 0.098846   |   0.0 |  0.67
Output  | 0.0014352  | 0.0014352  | 0.0014352  |   0.0 |  0.01
Modify  | 0.24865    | 0.24865    | 0.24865    |   0.0 |  1.68
Other   |            | 0.02298    |            |       |  0.16

Nlocal:           2048 ave        2048 max        2048 min
Histogram: 1 0 0 0 0 0 0 0 0 0
Nghost:           5764 ave        5764 max        5764 min
Histogram: 1 0 0 0 0 0 0 0 0 0
Neighs:         144597 ave      144597 max      144597 min
Histogram: 1 0 0 0 0 0 0 0 0 0

Total # of neighbors = 144597
Ave neighs/atom = 70.604004
Neighbor list builds = 0
Dangerous builds = 0
Setting up Verlet run ...
  Unit style    : metal
  Current step  : 10000
  Time step     : 0.001
Per MPI rank memory allocation (min/avg/max) = 3.962 | 3.962 | 3.962 Mbytes
   Step          Temp          PotEng         KinEng         TotEng         Press          Volume           Lx             Ly             Lz      
     10000   403.72179     -7142.869       106.82298     -7036.046       29.8655        24643.764      29.100627      29.100627      29.100627    
     10100   411.62867     -7135.3271      108.9151      -7026.412      -379.17346      24679.96       29.114867      29.114867      29.114867    
     10200   442.52521     -7129.5762      117.09019     -7012.486      -1344.8045      24725.163      29.132632      29.132632      29.132632    
     10300   470.04404     -7122.8304      124.37155     -6998.4588      599.17505      24722.507      29.131589      29.131589      29.131589    
     10400   496.01317     -7116.8728      131.24286     -6985.63        1463.7418      24734.463      29.136284      29.136284      29.136284    
     10500   512.50364     -7111.7892      135.60617     -6976.1831      1618.2204      24756.34       29.144872      29.144872      29.144872    
     10600   502.37287     -7105.6628      132.92561     -6972.7372     -701.67091      24816.288      29.168377      29.168377      29.168377    
     10700   512.26231     -7110.7869      135.54231     -6975.2446     -4383.7698      24861.708      29.186162      29.186162      29.186162    
     10800   496.67949     -7113.1628      131.41917     -6981.7437     -2737.0711      24823.205      29.171088      29.171088      29.171088    
     10900   490.06543     -7115.6903      129.66912     -6986.0212      1425.3142      24739.522      29.13827       29.13827       29.13827     
     11000   495.22902     -7116.6984      131.03538     -6985.6631      5219.6547      24670.311      29.111073      29.111073      29.111073    
     11100   491.32174     -7110.9459      130.00153     -6980.9443      5797.6224      24679.794      29.114802      29.114802      29.114802    
     11200   506.31186     -7110.3779      133.96785     -6976.4101      591.97227      24775.595      29.152426      29.152426      29.152426    
     11300   498.78761     -7107.3246      131.97697     -6975.3476     -2868.4994      24848.427      29.180964      29.180964      29.180964    
     11400   501.91082     -7111.7246      132.80335     -6978.9212     -4109.6476      24852.378      29.18251       29.18251       29.18251     
     11500   499.54834     -7114.5108      132.17825     -6982.3326     -1558.6884      24797.619      29.161061      29.161061      29.161061    
     11600   492.43153     -7113.7426      130.29518     -6983.4474      879.8781       24755.909      29.144703      29.144703      29.144703    
     11700   503.1683      -7115.5703      133.13608     -6982.4342      1505.9924      24740.157      29.138519      29.138519      29.138519    
     11800   498.33141     -7112.1669      131.85626     -6980.3107      1525.0897      24751.899      29.143129      29.143129      29.143129    
     11900   503.01417     -7109.6132      133.09529     -6976.5179      1026.504       24771.778      29.150928      29.150928      29.150928    
     12000   514.76646     -7111.8657      136.2049      -6975.6608     -1060.2635      24802.547      29.162993      29.162993      29.162993    
     12100   485.48943     -7110.4391      128.45833     -6981.9808     -1785.4975      24813.876      29.167433      29.167433      29.167433    
     12200   504.1329      -7116.8578      133.3913      -6983.4664     -929.28845      24778.783      29.153676      29.153676      29.153676    
     12300   490.00292     -7112.3681      129.65258     -6982.7155      733.7306       24763.395      29.14764       29.14764       29.14764     
     12400   501.98984     -7112.2343      132.82426     -6979.41        1201.9734      24755.971      29.144727      29.144727      29.144727    
     12500   515.26346     -7110.5498      136.3364      -6974.2134      2275.6554      24749.037      29.142006      29.142006      29.142006    
     12600   507.93819     -7107.4464      134.39817     -6973.0482      74.983878      24796.785      29.160735      29.160735      29.160735    
     12700   495.98893     -7111.2946      131.23645     -6980.0581     -1569.7804      24808.232      29.165221      29.165221      29.165221    
     12800   493.89983     -7114.0283      130.68368     -6983.3446     -2143.6399      24808.887      29.165478      29.165478      29.165478    
     12900   498.31174     -7115.1377      131.85105     -6983.2867     -1286.1878      24789.429      29.157851      29.157851      29.157851    
     13000   486.49799     -7110.0793      128.72519     -6981.3541      2160.6049      24747.243      29.141301      29.141301      29.141301    
     13100   509.55958     -7111.895       134.82718     -6977.0678      3619.8438      24718.724      29.130103      29.130103      29.130103    
     13200   517.80296     -7113.5416      137.00834     -6976.5333      1110.1189      24757.049      29.14515       29.14515       29.14515     
     13300   501.48223     -7113.9449      132.68995     -6981.2549     -1762.512       24803.297      29.163287      29.163287      29.163287    
     13400   488.96557     -7115.6693      129.3781      -6986.2912     -3470.6649      24824.21       29.171481      29.171481      29.171481    
     13500   497.59909     -7116.5023      131.66249     -6984.8398     -1927.7456      24798.292      29.161325      29.161325      29.161325    
     13600   497.92237     -7113.0689      131.74803     -6981.3208     -611.19736      24787.171      29.156965      29.156965      29.156965    
     13700   493.78141     -7110.1373      130.65235     -6979.485       591.95474      24774.223      29.151888      29.151888      29.151888    
     13800   506.66068     -7113.6612      134.06014     -6979.6011      1233.0544      24752.606      29.143406      29.143406      29.143406    
     13900   493.67619     -7111.6414      130.62451     -6981.0169      1981.6423      24745.389      29.140574      29.140574      29.140574    
     14000   491.90265     -7112.3226      130.15524     -6982.1673      1121.7065      24755.228      29.144435      29.144435      29.144435    
     14100   486.35138     -7112.677       128.6864      -6983.9906      423.32297      24767.411      29.149215      29.149215      29.149215    
     14200   486.95461     -7112.5916      128.84601     -6983.7456      380.28863      24768.061      29.14947       29.14947       29.14947     
     14300   509.28342     -7114.5981      134.75411     -6979.844       53.489488      24770.022      29.15024       29.15024       29.15024     
     14400   493.70438     -7107.528       130.63197     -6976.896       1225.007       24774.052      29.151821      29.151821      29.151821    
     14500   486.10587     -7106.4727      128.62143     -6977.8512      739.45605      24783.06       29.155353      29.155353      29.155353    
     14600   497.24894     -7114.9343      131.56984     -6983.3644      1260.4079      24744.396      29.140184      29.140184      29.140184    
     14700   490.96103     -7116.9648      129.90609     -6987.0588      1139.2342      24740.068      29.138485      29.138485      29.138485    
     14800   488.18194     -7113.8015      129.17075     -6984.6308      285.60825      24764.107      29.147919      29.147919      29.147919    
     14900   511.98228     -7115.7215      135.46822     -6980.2533     -500.31044      24778.377      29.153517      29.153517      29.153517    
     15000   501.63061     -7112.1563      132.72921     -6979.4271     -1842.5594      24811.456      29.166484      29.166484      29.166484    
Loop time of 15.2193 on 1 procs for 5000 steps with 2048 atoms

Performance: 28.385 ns/day, 0.846 hours/ns, 328.529 timesteps/s, 672.828 katom-step/s
99.6% CPU use with 1 MPI tasks x no OpenMP threads

MPI task timing breakdown:
Section |  min time  |  avg time  |  max time  |%varavg| %total
---------------------------------------------------------------
Pair    | 14.851     | 14.851     | 14.851     |   0.0 | 97.58
Neigh   | 0          | 0          | 0          |   0.0 |  0.00
Comm    | 0.097664   | 0.097664   | 0.097664   |   0.0 |  0.64
Output  | 0.00096467 | 0.00096467 | 0.00096467 |   0.0 |  0.01
Modify  | 0.24724    | 0.24724    | 0.24724    |   0.0 |  1.62
Other   |            | 0.02278    |            |       |  0.15

Nlocal:           2048 ave        2048 max        2048 min
Histogram: 1 0 0 0 0 0 0 0 0 0
Nghost:           5749 ave        5749 max        5749 min
Histogram: 1 0 0 0 0 0 0 0 0 0
Neighs:         144989 ave      144989 max      144989 min
Histogram: 1 0 0 0 0 0 0 0 0 0

Total # of neighbors = 144989
Ave neighs/atom = 70.79541
Neighbor list builds = 0
Dangerous builds = 0
Setting up Verlet run ...
  Unit style    : metal
  Current step  : 15000
  Time step     : 0.001
Per MPI rank memory allocation (min/avg/max) = 3.962 | 3.962 | 3.962 Mbytes
   Step          Temp          PotEng         KinEng         TotEng         Press          Volume           Lx             Ly             Lz      
     15000   501.63061     -7112.1563      132.72921     -6979.4271     -1842.5594      24811.456      29.166484      29.166484      29.166484    
     15100   517.46248     -7106.0597      136.91825     -6969.1415     -1512.4418      24831.096      29.174178      29.174178      29.174178    
     15200   552.98863     -7100.7547      146.31831     -6954.4364      2488.2379      24787.972      29.157279      29.157279      29.157279    
     15300   574.35904     -7091.6235      151.97283     -6939.6506      2410.6331      24830.904      29.174103      29.174103      29.174103    
     15400   594.5134      -7084.5277      157.30558     -6927.2221     -2219.8951      24942.578      29.217773      29.217773      29.217773    
     15500   607.72737     -7079.7089      160.80194     -6918.9069     -2721.0073      24974.444      29.23021       29.23021       29.23021     
     15600   613.79782     -7078.853       162.40815     -6916.4449      1644.656       24899.846      29.201078      29.201078      29.201078    
     15700   607.72691     -7081.5997      160.80182     -6920.7979      2781.8764      24867.442      29.188405      29.188405      29.188405    
     15800   586.30157     -7082.9451      155.13277     -6927.8124      719.40772      24894.494      29.198986      29.198986      29.198986    
     15900   587.43095     -7086.1883      155.4316      -6930.7567     -2310.417       24936.288      29.215317      29.215317      29.215317    
     16000   588.25857     -7083.8184      155.65058     -6928.1678     -594.33001      24914.265      29.206714      29.206714      29.206714    
     16100   606.69308     -7083.5552      160.52827     -6923.0269      1475.8458      24881.05       29.193729      29.193729      29.193729    
     16200   595.04816     -7077.1732      157.44707     -6919.7261      2964.3636      24882.048      29.194119      29.194119      29.194119    
     16300   614.50786     -7082.2381      162.59602     -6919.6421     -1821.8032      24946.83       29.219433      29.219433      29.219433    
     16400   600.11155     -7082.8823      158.78683     -6924.0955     -1232.7722      24931.524      29.213456      29.213456      29.213456    
     16500   602.54745     -7087.5965      159.43135     -6928.1652      174.18429      24890.872      29.19757       29.19757       29.19757     
     16600   584.99448     -7084.0287      154.78692     -6929.2417      566.71122      24895.442      29.199356      29.199356      29.199356    
     16700   601.22969     -7083.3497      159.08268     -6924.267       651.30062      24896.911      29.199931      29.199931      29.199931    
     16800   607.32532     -7078.7813      160.69556     -6918.0857     -733.6672       24941.449      29.217332      29.217332      29.217332    
     16900   590.6399      -7076.7156      156.28067     -6920.4349      179.83316      24930.463      29.213042      29.213042      29.213042    
     17000   610.26526     -7084.9212      161.47345     -6923.4478      2114.1427      24868.494      29.188817      29.188817      29.188817    
     17100   594.86186     -7084.0621      157.39778     -6926.6643      1740.1423      24873.86       29.190916      29.190916      29.190916    
     17200   589.34519     -7084.1221      155.9381      -6928.184      -2621.7606      24953.44       29.222014      29.222014      29.222014    
     17300   609.10999     -7084.3341      161.16777     -6923.1664     -1179.6142      24930.677      29.213125      29.213125      29.213125    
     17400   615.53115     -7079.3524      162.86678     -6916.4857      977.21432      24909.918      29.205015      29.205015      29.205015    
     17500   609.51784     -7078.4904      161.27569     -6917.2148      2204.4107      24892.035      29.198024      29.198024      29.198024    
     17600   595.81294     -7081.2068      157.64943     -6923.5574      183.7714       24915.463      29.207182      29.207182      29.207182    
     17700   594.47926     -7082.7679      157.29655     -6925.4713     -667.97946      24920.566      29.209176      29.209176      29.209176    
     17800   608.56867     -7086.2971      161.02454     -6925.2725     -356.63951      24907.162      29.203938      29.203938      29.203938    
     17900   603.93213     -7085.5188      159.79773     -6925.7211     -306.88908      24907.264      29.203978      29.203978      29.203978    
     18000   587.42668     -7082.1771      155.43047     -6926.7467      167.25451      24910.234      29.205139      29.205139      29.205139    
     18100   590.70852     -7082.8613      156.29883     -6926.5625      368.35251      24902.382      29.202069      29.202069      29.202069    
     18200   589.74398     -7080.6243      156.04361     -6924.5807      1730.1004      24889.065      29.196863      29.196863      29.196863    
     18300   617.39021     -7083.7631      163.35868     -6920.4044      8.041783       24912.459      29.206008      29.206008      29.206008    
     18400   612.58465     -7080.3469      162.08715     -6918.2598      315.10685      24920.134      29.209007      29.209007      29.209007    
     18500   601.79252     -7083.137       159.2316      -6923.9054     -993.7936       24927.206      29.21177       29.21177       29.21177     
     18600   592.71396     -7086.483       156.82946     -6929.6536     -2312.0556      24937.37       29.21574       29.21574       29.21574     
     18700   589.71344     -7084.7981      156.03553     -6928.7626      589.5756       24891.67       29.197882      29.197882      29.197882    
     18800   596.69521     -7081.8804      157.88288     -6923.9975      3974.078       24844.632      29.179478      29.179478      29.179478    
     18900   613.31437     -7083.2077      162.28023     -6920.9274      902.88929      24896.683      29.199842      29.199842      29.199842    
     19000   605.01382     -7081.762       160.08394     -6921.6781     -4164.0664      24991.188      29.236742      29.236742      29.236742    
     19100   601.38784     -7082.7173      159.12453     -6923.5928     -1684.8456      24944.546      29.218542      29.218542      29.218542    
     19200   628.8834      -7089.7487      166.39973     -6923.349       717.1912       24877.311      29.192266      29.192266      29.192266    
     19300   590.89433     -7082.2528      156.34799     -6925.9048      676.96346      24899.243      29.200842      29.200842      29.200842    
     19400   597.02852     -7082.9895      157.97107     -6925.0184      919.35758      24895.417      29.199347      29.199347      29.199347    
     19500   603.15641     -7084.2227      159.59248     -6924.6302     -3057.1492      24961.056      29.224987      29.224987      29.224987    
     19600   615.08917     -7083.9637      162.74984     -6921.2139     -477.98507      24919.795      29.208874      29.208874      29.208874    
     19700   610.90749     -7081.4543      161.64338     -6919.811       1494.9877      24890.605      29.197465      29.197465      29.197465    
     19800   606.58907     -7082.3322      160.50075     -6921.8315     -178.73479      24916.187      29.207465      29.207465      29.207465    
     19900   589.50223     -7083.4699      155.97965     -6927.4902     -2100.2587      24942.162      29.217611      29.217611      29.217611    
     20000   585.53433     -7084.2475      154.92976     -6929.3178      476.30144      24892.144      29.198067      29.198067      29.198067    
Loop time of 15.3459 on 1 procs for 5000 steps with 2048 atoms

Performance: 28.151 ns/day, 0.853 hours/ns, 325.819 timesteps/s, 667.277 katom-step/s
99.7% CPU use with 1 MPI tasks x no OpenMP threads

MPI task timing breakdown:
Section |  min time  |  avg time  |  max time  |%varavg| %total
---------------------------------------------------------------
Pair    | 14.98      | 14.98      | 14.98      |   0.0 | 97.62
Neigh   | 0          | 0          | 0          |   0.0 |  0.00
Comm    | 0.096996   | 0.096996   | 0.096996   |   0.0 |  0.63
Output  | 0.00089904 | 0.00089904 | 0.00089904 |   0.0 |  0.01
Modify  | 0.24553    | 0.24553    | 0.24553    |   0.0 |  1.60
Other   |            | 0.02247    |            |       |  0.15

Nlocal:           2048 ave        2048 max        2048 min
Histogram: 1 0 0 0 0 0 0 0 0 0
Nghost:           5730 ave        5730 max        5730 min
Histogram: 1 0 0 0 0 0 0 0 0 0
Neighs:         145064 ave      145064 max      145064 min
Histogram: 1 0 0 0 0 0 0 0 0 0

Total # of neighbors = 145064
Ave neighs/atom = 70.832031
Neighbor list builds = 0
Dangerous builds = 0
Total wall time: 0:00:57
