LAMMPS (29 Aug 2024 - Update 2)
Lattice spacing in x,y,z = 3.6 3.6 3.6
Created orthogonal box = (0 0 0) to (28.8 28.8 28.8)
  1 by 1 by 1 MPI processor grid
Created 2048 atoms
  using lattice units in orthogonal box = (0 0 0) to (28.8 28.8 28.8)
  create_atoms CPU = 0.000 seconds
Neighbor list info ...
  update: every = 1 steps, delay = 0 steps, check = yes
  max neighbors/atom: 2000, page size: 100000
  master list distance cutoff = 7.50679
  ghost atom cutoff = 7.50679
  binsize = 3.753395, bins = 8 8 8
  1 neighbor lists, perpetual/occasional/extra = 1 0 0
  (1) pair eam/alloy, perpetual
      attributes: half, newton on
      pair build: half/bin/atomonly/newton
      stencil: half/bin/3d
      bin: standard
Setting up Verlet run ...
  Unit style    : metal
  Current step  : 0
  Time step     : 0.005
Per MPI rank memory allocation (min/avg/max) = 3.962 | 3.962 | 3.962 Mbytes
   Step          Temp          PotEng         KinEng         TotEng         Press          Volume           Lx             Ly             Lz      
         0   1200          -7248.749       317.51462     -6931.2344      31738.533      23887.872      28.8           28.8           28.8         
       100   605.98726     -7090.4529      160.34151     -6930.1114      57494.976      23887.872      28.8           28.8           28.8         
       200   597.67746     -7088.2732      158.14278     -6930.1304      58010.619      23887.872      28.8           28.8           28.8         
       300   598.86544     -7088.5434      158.45711     -6930.0863      57936.097      23887.872      28.8           28.8           28.8         
       400   606.21714     -7090.5377      160.40234     -6930.1354      57537.013      23887.872      28.8           28.8           28.8         
       500   602.73977     -7089.5846      159.48224     -6930.1024      57892.963      23887.872      28.8           28.8           28.8         
       600   597.89241     -7088.2874      158.19965     -6930.0877      57988.958      23887.872      28.8           28.8           28.8         
       700   596.76049     -7087.9824      157.90015     -6930.0823      57946.759      23887.872      28.8           28.8           28.8         
       800   610.16931     -7091.5819      161.44806     -6930.1339      57633.25       23887.872      28.8           28.8           28.8         
       900   596.6455      -7087.9415      157.86972     -6930.0717      58149.093      23887.872      28.8           28.8           28.8         
      1000   600.54489     -7088.9952      158.90149     -6930.0937      57898.066      23887.872      28.8           28.8           28.8         
      1100   595.73228     -7087.7212      157.62809     -6930.0931      58065.479      23887.872      28.8           28.8           28.8         
      1200   605.4345      -7090.2874      160.19525     -6930.0922      57696.073      23887.872      28.8           28.8           28.8         
      1300   621.18593     -7094.4969      164.36301     -6930.1339      56840.206      23887.872      28.8           28.8           28.8         
      1400   606.05314     -7090.4688      160.35894     -6930.1098      57578.705      23887.872      28.8           28.8           28.8         
      1500   604.56428     -7090.0733      159.965       -6930.1083      57628.602      23887.872      28.8           28.8           28.8         
      1600   606.37048     -7090.5638      160.44291     -6930.1209      57637.945      23887.872      28.8           28.8           28.8         
      1700   599.94289     -7088.8399      158.7422      -6930.0977      57907.035      23887.872      28.8           28.8           28.8         
      1800   600.12753     -7088.8894      158.79105     -6930.0983      57962.958      23887.872      28.8           28.8           28.8         
      1900   593.29898     -7087.0643      156.98425     -6930.08        58217.226      23887.872      28.8           28.8           28.8         
      2000   611.84435     -7092.0288      161.89127     -6930.1375      57412.639      23887.872      28.8           28.8           28.8         
      2100   595.17157     -7087.5653      157.47973     -6930.0856      58179.441      23887.872      28.8           28.8           28.8         
      2200   605.83349     -7090.4171      160.30083     -6930.1162      57524.278      23887.872      28.8           28.8           28.8         
      2300   589.11285     -7085.9435      155.87662     -6930.0668      58243.777      23887.872      28.8           28.8           28.8         
      2400   601.61353     -7089.292       159.18424     -6930.1077      57723.578      23887.872      28.8           28.8           28.8         
      2500   610.30339     -7091.6208      161.48354     -6930.1373      57322.281      23887.872      28.8           28.8           28.8         
      2600   595.50135     -7087.681       157.56699     -6930.114       58050.101      23887.872      28.8           28.8           28.8         
      2700   597.55558     -7088.2313      158.11053     -6930.1208      58002.655      23887.872      28.8           28.8           28.8         
      2800   602.02309     -7089.3992      159.29261     -6930.1066      57669.742      23887.872      28.8           28.8           28.8         
      2900   602.77835     -7089.5916      159.49245     -6930.0991      57743.128      23887.872      28.8           28.8           28.8         
      3000   588.6054      -7085.8314      155.74235     -6930.0891      58209.267      23887.872      28.8           28.8           28.8         
      3100   601.56047     -7089.2779      159.1702      -6930.1076      57619.931      23887.872      28.8           28.8           28.8         
      3200   601.18148     -7089.159       159.06992     -6930.0891      57826.823      23887.872      28.8           28.8           28.8         
      3300   605.67086     -7090.3966      160.25779     -6930.1388      57488.585      23887.872      28.8           28.8           28.8         
      3400   598.51387     -7088.4551      158.36409     -6930.091       57836.344      23887.872      28.8           28.8           28.8         
      3500   611.23034     -7091.8459      161.72881     -6930.117       57276.896      23887.872      28.8           28.8           28.8         
      3600   611.19022     -7091.8357      161.71819     -6930.1176      57289.109      23887.872      28.8           28.8           28.8         
      3700   591.37877     -7086.5677      156.47617     -6930.0915      58308.033      23887.872      28.8           28.8           28.8         
      3800   600.70129     -7089.0451      158.94287     -6930.1022      57903.306      23887.872      28.8           28.8           28.8         
      3900   603.38544     -7089.763       159.65308     -6930.1099      57715.704      23887.872      28.8           28.8           28.8         
      4000   600.4534      -7088.9973      158.87728     -6930.12        57892.246      23887.872      28.8           28.8           28.8         
      4100   607.53422     -7090.8676      160.75083     -6930.1168      57504.581      23887.872      28.8           28.8           28.8         
      4200   614.22541     -7092.6816      162.52129     -6930.1603      57141.347      23887.872      28.8           28.8           28.8         
      4300   589.32622     -7086.0221      155.93308     -6930.089       58367.758      23887.872      28.8           28.8           28.8         
      4400   612.73302     -7092.2725      162.12641     -6930.1461      57242.55       23887.872      28.8           28.8           28.8         
      4500   603.2402      -7089.7229      159.61465     -6930.1082      57641.822      23887.872      28.8           28.8           28.8         
      4600   590.9717      -7086.4534      156.36846     -6930.085       58191.753      23887.872      28.8           28.8           28.8         
      4700   612.7791      -7092.269       162.1386      -6930.1304      57242.507      23887.872      28.8           28.8           28.8         
      4800   593.13363     -7087.0567      156.9405      -6930.1162      58139.793      23887.872      28.8           28.8           28.8         
      4900   601.32207     -7089.2063      159.10712     -6930.0992      57844.841      23887.872      28.8           28.8           28.8         
      5000   620.68185     -7094.3858      164.22963     -6930.1562      56926.195      23887.872      28.8           28.8           28.8         
      5100   610.23848     -7091.5814      161.46636     -6930.115       57342.392      23887.872      28.8           28.8           28.8         
      5200   613.50463     -7092.4889      162.33058     -6930.1583      57229.537      23887.872      28.8           28.8           28.8         
      5300   594.83468     -7087.4554      157.39059     -6930.0648      58147.693      23887.872      28.8           28.8           28.8         
      5400   606.67628     -7090.6394      160.52382     -6930.1156      57490.259      23887.872      28.8           28.8           28.8         
      5500   608.17483     -7091.0416      160.92033     -6930.1213      57469.59       23887.872      28.8           28.8           28.8         
      5600   593.90656     -7087.2507      157.14501     -6930.1057      58071.27       23887.872      28.8           28.8           28.8         
      5700   588.96748     -7085.9038      155.83816     -6930.0656      58414.94       23887.872      28.8           28.8           28.8         
      5800   612.49423     -7092.1581      162.06323     -6930.0949      57284.645      23887.872      28.8           28.8           28.8         
      5900   610.40782     -7091.6209      161.51117     -6930.1097      57256.732      23887.872      28.8           28.8           28.8         
      6000   604.91327     -7090.1647      160.05734     -6930.1074      57624.198      23887.872      28.8           28.8           28.8         
      6100   604.52715     -7090.0713      159.95517     -6930.1161      57545.927      23887.872      28.8           28.8           28.8         
      6200   592.40122     -7086.8229      156.74671     -6930.0762      58307.098      23887.872      28.8           28.8           28.8         
      6300   610.97779     -7091.7914      161.66198     -6930.1294      57372.672      23887.872      28.8           28.8           28.8         
      6400   607.81423     -7090.9412      160.82492     -6930.1162      57554.983      23887.872      28.8           28.8           28.8         
      6500   609.11803     -7091.2999      161.1699      -6930.13        57343.946      23887.872      28.8           28.8           28.8         
      6600   612.00036     -7092.0724      161.93255     -6930.1399      57265.971      23887.872      28.8           28.8           28.8         
      6700   609.93436     -7091.5138      161.3859      -6930.1279      57360.06       23887.872      28.8           28.8           28.8         
      6800   598.8102      -7088.512       158.44249     -6930.0695      58003.986      23887.872      28.8           28.8           28.8         
      6900   602.22867     -7089.457       159.34701     -6930.11        57738.555      23887.872      28.8           28.8           28.8         
      7000   603.59177     -7089.8314      159.70768     -6930.1237      57664.644      23887.872      28.8           28.8           28.8         
      7100   612.41988     -7092.1679      162.04355     -6930.1243      57339.203      23887.872      28.8           28.8           28.8         
      7200   599.78071     -7088.7888      158.69929     -6930.0895      57818.967      23887.872      28.8           28.8           28.8         
      7300   613.47144     -7092.4614      162.32179     -6930.1396      57227.993      23887.872      28.8           28.8           28.8         
      7400   615.43823     -7092.9837      162.8422      -6930.1415      57263.544      23887.872      28.8           28.8           28.8         
      7500   600.15068     -7088.91        158.79718     -6930.1128      57841.544      23887.872      28.8           28.8           28.8         
      7600   595.97178     -7087.801       157.69146     -6930.1096      58118.701      23887.872      28.8           28.8           28.8         
      7700   589.75069     -7086.1089      156.04539     -6930.0635      58174.577      23887.872      28.8           28.8           28.8         
      7800   582.98339     -7084.3046      154.25479     -6930.0498      58540.62       23887.872      28.8           28.8           28.8         
      7900   611.81846     -7092.0357      161.88442     -6930.1513      57387.248      23887.872      28.8           28.8           28.8         
      8000   616.36542     -7093.2502      163.08753     -6930.1627      57057.639      23887.872      28.8           28.8           28.8         
      8100   602.15112     -7089.428       159.32649     -6930.1015      57835.625      23887.872      28.8           28.8           28.8         
      8200   616.57725     -7093.2761      163.14358     -6930.1325      57146.246      23887.872      28.8           28.8           28.8         
      8300   609.01959     -7091.2639      161.14385     -6930.12        57482.197      23887.872      28.8           28.8           28.8         
      8400   614.50757     -7092.7083      162.59595     -6930.1124      57157.876      23887.872      28.8           28.8           28.8         
      8500   610.93496     -7091.7717      161.65065     -6930.121       57396.278      23887.872      28.8           28.8           28.8         
      8600   593.71266     -7087.2129      157.09371     -6930.1192      58071.806      23887.872      28.8           28.8           28.8         
      8700   610.44502     -7091.6359      161.52101     -6930.1148      57386.939      23887.872      28.8           28.8           28.8         
      8800   614.51251     -7092.7352      162.59725     -6930.1379      57193.57       23887.872      28.8           28.8           28.8         
      8900   600.05558     -7088.8664      158.77202     -6930.0944      58035.798      23887.872      28.8           28.8           28.8         
      9000   616.46616     -7093.2526      163.11418     -6930.1384      57198.864      23887.872      28.8           28.8           28.8         
      9100   603.3938      -7089.7711      159.65529     -6930.1158      57706.187      23887.872      28.8           28.8           28.8         
      9200   599.35218     -7088.6929      158.5859      -6930.107       57820.748      23887.872      28.8           28.8           28.8         
      9300   592.74204     -7086.9159      156.83689     -6930.079       58299.799      23887.872      28.8           28.8           28.8         
      9400   591.94992     -7086.7202      156.62729     -6930.0929      58306.107      23887.872      28.8           28.8           28.8         
      9500   611.59617     -7091.9561      161.8256      -6930.1305      57278.221      23887.872      28.8           28.8           28.8         
      9600   603.44328     -7089.777       159.66839     -6930.1086      57609.894      23887.872      28.8           28.8           28.8         
      9700   610.4187      -7091.628       161.51405     -6930.1139      57513.46       23887.872      28.8           28.8           28.8         
      9800   604.21249     -7089.9887      159.87192     -6930.1167      57763.817      23887.872      28.8           28.8           28.8         
      9900   605.27293     -7090.2667      160.1525      -6930.1142      57767.276      23887.872      28.8           28.8           28.8         
     10000   616.08448     -7093.1727      163.01319     -6930.1595      57076.649      23887.872      28.8           28.8           28.8         
Loop time of 27.1677 on 1 procs for 10000 steps with 2048 atoms

Performance: 159.012 ns/day, 0.151 hours/ns, 368.084 timesteps/s, 753.835 katom-step/s
99.2% CPU use with 1 MPI tasks x no OpenMP threads

MPI task timing breakdown:
Section |  min time  |  avg time  |  max time  |%varavg| %total
---------------------------------------------------------------
Pair    | 26.696     | 26.696     | 26.696     |   0.0 | 98.26
Neigh   | 0          | 0          | 0          |   0.0 |  0.00
Comm    | 0.2021     | 0.2021     | 0.2021     |   0.0 |  0.74
Output  | 0.0030108  | 0.0030108  | 0.0030108  |   0.0 |  0.01
Modify  | 0.21424    | 0.21424    | 0.21424    |   0.0 |  0.79
Other   |            | 0.05208    |            |       |  0.19

Nlocal:           2048 ave        2048 max        2048 min
Histogram: 1 0 0 0 0 0 0 0 0 0
Nghost:           5765 ave        5765 max        5765 min
Histogram: 1 0 0 0 0 0 0 0 0 0
Neighs:         143360 ave      143360 max      143360 min
Histogram: 1 0 0 0 0 0 0 0 0 0

Total # of neighbors = 143360
Ave neighs/atom = 70
Neighbor list builds = 0
Dangerous builds = 0
Total wall time: 0:00:27
