LAMMPS (29 Aug 2024 - Update 2)
Lattice spacing in x,y,z = 3.6 3.6 3.6
Created orthogonal box = (0 0 0) to (36 36 36)
  1 by 1 by 1 MPI processor grid
Created 4000 atoms
  using lattice units in orthogonal box = (0 0 0) to (36 36 36)
  create_atoms CPU = 0.000 seconds
Neighbor list info ...
  update: every = 1 steps, delay = 0 steps, check = yes
  max neighbors/atom: 2000, page size: 100000
  master list distance cutoff = 7.50679
  ghost atom cutoff = 7.50679
  binsize = 3.753395, bins = 10 10 10
  1 neighbor lists, perpetual/occasional/extra = 1 0 0
  (1) pair eam/alloy, perpetual
      attributes: half, newton on
      pair build: half/bin/atomonly/newton
      stencil: half/bin/3d
      bin: standard
Setting up Verlet run ...
  Unit style    : metal
  Current step  : 0
  Time step     : 0.02
Per MPI rank memory allocation (min/avg/max) = 4.462 | 4.462 | 4.462 Mbytes
   Step          Temp          PotEng         KinEng         TotEng         Press          Volume           Lx             Ly             Lz      
         0   1200          -14157.713      620.29358     -13537.419      31741.918      46656          36             36             36           
       100   594.0127      -13800.749      307.05189     -13493.697      62763.879      46656          36             36             36           
       200   608.24894     -13807.714      314.41076     -13493.303      62119.912      46656          36             36             36           
       300   604.58829     -13802.85       312.51853     -13490.332      62613.593      46656          36             36             36           
       400   611.32922     -13804.414      316.003       -13488.411      62434.185      46656          36             36             36           
       500   607.67491     -13800.412      314.11404     -13486.298      63014.913      46656          36             36             36           
       600   611.66638     -13799.919      316.17728     -13483.742      63130.83       46656          36             36             36           
       700   604.55241     -13794.616      312.49999     -13482.116      63587.949      46656          36             36             36           
       800   608.41275     -13795.313      314.49544     -13480.817      63451.836      46656          36             36             36           
       900   607.62259     -13791.85       314.08699     -13477.763      63924.602      46656          36             36             36           
      1000   617.86986     -13795.66       319.38392     -13476.276      63569.641      46656          36             36             36           
      1100   612.62053     -13788.385      316.67049     -13471.714      64417.819      46656          36             36             36           
      1200   617.93218     -13788.528      319.41614     -13469.112      64544.162      46656          36             36             36           
      1300   626.71589     -13792.996      323.95654     -13469.04       63985.023      46656          36             36             36           
      1400   617.18642     -13785.156      319.03065     -13466.125      64781.233      46656          36             36             36           
      1500   635.10851     -13792.992      328.29478     -13464.697      64071.921      46656          36             36             36           
      1600   624.5937      -13782.482      322.85956     -13459.622      65095.308      46656          36             36             36           
      1700   637.54948     -13787.474      329.55655     -13457.918      64655.206      46656          36             36             36           
      1800   637.03626     -13783.884      329.29125     -13454.593      65182.528      46656          36             36             36           
      1900   646.36268     -13785.604      334.11218     -13451.492      65041.799      46656          36             36             36           
      2000   636.16269     -13777.868      328.83969     -13449.028      65820.814      46656          36             36             36           
      2100   635.93752     -13775.245      328.7233      -13446.522      66116.919      46656          36             36             36           
      2200   651.17422     -13780.131      336.59933     -13443.531      65836.266      46656          36             36             36           
      2300   645.32613     -13774.429      333.57638     -13440.853      66297.345      46656          36             36             36           
      2400   651.4069      -13774.023      336.7196      -13437.304      66375.986      46656          36             36             36           
      2500   660.0893      -13776.73       341.20763     -13435.522      66183.885      46656          36             36             36           
Loop time of 14.0148 on 1 procs for 2500 steps with 4000 atoms

Performance: 308.246 ns/day, 0.078 hours/ns, 178.383 timesteps/s, 713.532 katom-step/s
96.5% CPU use with 1 MPI tasks x no OpenMP threads

MPI task timing breakdown:
Section |  min time  |  avg time  |  max time  |%varavg| %total
---------------------------------------------------------------
Pair    | 13.817     | 13.817     | 13.817     |   0.0 | 98.59
Neigh   | 0          | 0          | 0          |   0.0 |  0.00
Comm    | 0.082329   | 0.082329   | 0.082329   |   0.0 |  0.59
Output  | 0.00073662 | 0.00073662 | 0.00073662 |   0.0 |  0.01
Modify  | 0.091251   | 0.091251   | 0.091251   |   0.0 |  0.65
Other   |            | 0.02335    |            |       |  0.17

Nlocal:           4000 ave        4000 max        4000 min
Histogram: 1 0 0 0 0 0 0 0 0 0
Nghost:           8195 ave        8195 max        8195 min
Histogram: 1 0 0 0 0 0 0 0 0 0
Neighs:         280000 ave      280000 max      280000 min
Histogram: 1 0 0 0 0 0 0 0 0 0

Total # of neighbors = 280000
Ave neighs/atom = 70
Neighbor list builds = 0
Dangerous builds = 0
Total wall time: 0:00:14
