LAMMPS (29 Aug 2024 - Update 2)
Lattice spacing in x,y,z = 3.6 3.6 3.6
Created orthogonal box = (0 0 0) to (28.8 28.8 28.8)
  1 by 1 by 1 MPI processor grid
Created 2048 atoms
  using lattice units in orthogonal box = (0 0 0) to (28.8 28.8 28.8)
  create_atoms CPU = 0.000 seconds
Neighbor list info ...
  update: every = 1 steps, delay = 0 steps, check = yes
  max neighbors/atom: 2000, page size: 100000
  master list distance cutoff = 7.50679
  ghost atom cutoff = 7.50679
  binsize = 3.753395, bins = 8 8 8
  1 neighbor lists, perpetual/occasional/extra = 1 0 0
  (1) pair eam/alloy, perpetual
      attributes: half, newton on
      pair build: half/bin/atomonly/newton
      stencil: half/bin/3d
      bin: standard
Setting up Verlet run ...
  Unit style    : metal
  Current step  : 0
  Time step     : 0.01
Per MPI rank memory allocation (min/avg/max) = 3.962 | 3.962 | 3.962 Mbytes
   Step          Temp          PotEng         KinEng         TotEng         Press          Volume           Lx             Ly             Lz      
         0   1200          -7248.749       317.51462     -6931.2344      31738.533      23887.872      28.8           28.8           28.8         
       100   595.06811     -7084.1104      157.45236     -6926.658       58906.97       23887.872      28.8           28.8           28.8         
       200   604.48448     -7086.6009      159.94388     -6926.657       58422.191      23887.872      28.8           28.8           28.8         
       300   602.83624     -7086.0776      159.50777     -6926.5699      58463.651      23887.872      28.8           28.8           28.8         
       400   599.04861     -7085.0282      158.50558     -6926.5226      58792.082      23887.872      28.8           28.8           28.8         
       500   604.52092     -7086.4391      159.95352     -6926.4856      58414.226      23887.872      28.8           28.8           28.8         
       600   596.55811     -7084.3184      157.8466      -6926.4718      58709.686      23887.872      28.8           28.8           28.8         
       700   601.38138     -7085.7297      159.12282     -6926.6069      58457.985      23887.872      28.8           28.8           28.8         
       800   597.35695     -7084.6277      158.05797     -6926.5697      58740.603      23887.872      28.8           28.8           28.8         
       900   598.9091      -7085.0763      158.46866     -6926.6076      58560.901      23887.872      28.8           28.8           28.8         
      1000   600.36315     -7085.4565      158.8534      -6926.6031      58798.396      23887.872      28.8           28.8           28.8         
      1100   606.17044     -7087.1674      160.38998     -6926.7774      58395.608      23887.872      28.8           28.8           28.8         
      1200   605.54648     -7086.8365      160.22488     -6926.6116      58382.946      23887.872      28.8           28.8           28.8         
      1300   578.96407     -7079.613       153.1913      -6926.4217      59655.31       23887.872      28.8           28.8           28.8         
      1400   600.11259     -7085.415       158.7871      -6926.6279      58585.84       23887.872      28.8           28.8           28.8         
      1500   605.47074     -7086.8064      160.20484     -6926.6016      58283.494      23887.872      28.8           28.8           28.8         
      1600   611.1318      -7088.4659      161.70274     -6926.7631      58189.612      23887.872      28.8           28.8           28.8         
      1700   600.09485     -7085.2587      158.78241     -6926.4763      58659.101      23887.872      28.8           28.8           28.8         
      1800   617.55242     -7090.1722      163.4016      -6926.7706      57793.897      23887.872      28.8           28.8           28.8         
      1900   595.59262     -7084.1214      157.59114     -6926.5303      58784.887      23887.872      28.8           28.8           28.8         
      2000   583.71896     -7081.0364      154.44942     -6926.5869      59164.252      23887.872      28.8           28.8           28.8         
      2100   597.83095     -7084.7946      158.18339     -6926.6112      58585.305      23887.872      28.8           28.8           28.8         
      2200   599.66239     -7085.2858      158.66798     -6926.6178      58667.885      23887.872      28.8           28.8           28.8         
      2300   603.81182     -7086.4284      159.7659      -6926.6625      58534.931      23887.872      28.8           28.8           28.8         
      2400   602.18569     -7085.8806      159.33563     -6926.545       58568.23       23887.872      28.8           28.8           28.8         
      2500   611.24754     -7088.3722      161.73336     -6926.6389      58086.169      23887.872      28.8           28.8           28.8         
      2600   601.48542     -7085.7163      159.15035     -6926.566       58482.957      23887.872      28.8           28.8           28.8         
      2700   597.3389      -7084.586       158.0532      -6926.5328      58715.651      23887.872      28.8           28.8           28.8         
      2800   604.0513      -7086.3663      159.82927     -6926.537       58349.199      23887.872      28.8           28.8           28.8         
      2900   619.02421     -7090.5247      163.79103     -6926.7337      57636.044      23887.872      28.8           28.8           28.8         
      3000   608.5902      -7087.5908      161.03024     -6926.5606      58242.997      23887.872      28.8           28.8           28.8         
      3100   592.56341     -7083.3037      156.78962     -6926.5141      58815.242      23887.872      28.8           28.8           28.8         
      3200   610.88276     -7088.2605      161.63684     -6926.6236      58160.959      23887.872      28.8           28.8           28.8         
      3300   599.25184     -7085.1789      158.55935     -6926.6195      58681.163      23887.872      28.8           28.8           28.8         
      3400   613.23395     -7088.9826      162.25895     -6926.7236      57876.834      23887.872      28.8           28.8           28.8         
      3500   590.51848     -7082.8248      156.24854     -6926.5762      58976.83       23887.872      28.8           28.8           28.8         
      3600   608.44251     -7087.6191      160.99116     -6926.6279      58249.189      23887.872      28.8           28.8           28.8         
      3700   602.21356     -7085.8778      159.34301     -6926.5347      58510.568      23887.872      28.8           28.8           28.8         
      3800   603.58978     -7086.3023      159.70715     -6926.5951      58491.513      23887.872      28.8           28.8           28.8         
      3900   597.06194     -7084.4174      157.97991     -6926.4375      58778.572      23887.872      28.8           28.8           28.8         
      4000   604.22809     -7086.5708      159.87604     -6926.6947      58385.019      23887.872      28.8           28.8           28.8         
      4100   608.26103     -7087.5505      160.94314     -6926.6074      58213.134      23887.872      28.8           28.8           28.8         
      4200   598.31385     -7084.8839      158.31116     -6926.5727      58790.819      23887.872      28.8           28.8           28.8         
      4300   604.94463     -7086.6044      160.06564     -6926.5388      58254.117      23887.872      28.8           28.8           28.8         
      4400   612.2139      -7088.6313      161.98905     -6926.6422      58041.024      23887.872      28.8           28.8           28.8         
      4500   596.22019     -7084.3049      157.75719     -6926.5477      58752.638      23887.872      28.8           28.8           28.8         
      4600   614.43248     -7089.2036      162.57608     -6926.6275      57999.647      23887.872      28.8           28.8           28.8         
      4700   603.50168     -7086.2613      159.68384     -6926.5774      58574.205      23887.872      28.8           28.8           28.8         
      4800   601.48982     -7085.8201      159.15151     -6926.6686      58527.403      23887.872      28.8           28.8           28.8         
      4900   609.28784     -7087.8749      161.21483     -6926.6601      58191.862      23887.872      28.8           28.8           28.8         
      5000   598.90247     -7085.1484      158.46691     -6926.6815      58691.426      23887.872      28.8           28.8           28.8         
Loop time of 13.6361 on 1 procs for 5000 steps with 2048 atoms

Performance: 316.806 ns/day, 0.076 hours/ns, 366.673 timesteps/s, 750.947 katom-step/s
99.7% CPU use with 1 MPI tasks x no OpenMP threads

MPI task timing breakdown:
Section |  min time  |  avg time  |  max time  |%varavg| %total
---------------------------------------------------------------
Pair    | 13.399     | 13.399     | 13.399     |   0.0 | 98.26
Neigh   | 0          | 0          | 0          |   0.0 |  0.00
Comm    | 0.10159    | 0.10159    | 0.10159    |   0.0 |  0.75
Output  | 0.0013168  | 0.0013168  | 0.0013168  |   0.0 |  0.01
Modify  | 0.10893    | 0.10893    | 0.10893    |   0.0 |  0.80
Other   |            | 0.02578    |            |       |  0.19

Nlocal:           2048 ave        2048 max        2048 min
Histogram: 1 0 0 0 0 0 0 0 0 0
Nghost:           5765 ave        5765 max        5765 min
Histogram: 1 0 0 0 0 0 0 0 0 0
Neighs:         143360 ave      143360 max      143360 min
Histogram: 1 0 0 0 0 0 0 0 0 0

Total # of neighbors = 143360
Ave neighs/atom = 70
Neighbor list builds = 0
Dangerous builds = 0
Total wall time: 0:00:13
