LAMMPS (29 Aug 2024 - Update 2)
Lattice spacing in x,y,z = 3.6 3.6 3.6
Created orthogonal box = (0 0 0) to (28.8 28.8 28.8)
  1 by 1 by 1 MPI processor grid
Created 2048 atoms
  using lattice units in orthogonal box = (0 0 0) to (28.8 28.8 28.8)
  create_atoms CPU = 0.000 seconds
Neighbor list info ...
  update: every = 1 steps, delay = 0 steps, check = yes
  max neighbors/atom: 2000, page size: 100000
  master list distance cutoff = 7.50679
  ghost atom cutoff = 7.50679
  binsize = 3.753395, bins = 8 8 8
  1 neighbor lists, perpetual/occasional/extra = 1 0 0
  (1) pair eam/alloy, perpetual
      attributes: half, newton on
      pair build: half/bin/atomonly/newton
      stencil: half/bin/3d
      bin: standard
Setting up Verlet run ...
  Unit style    : metal
  Current step  : 0
  Time step     : 0.001
Per MPI rank memory allocation (min/avg/max) = 3.962 | 3.962 | 3.962 Mbytes
   Step          Temp          PotEng         KinEng         TotEng         Press          Volume           Lx             Ly             Lz      
         0   600           -7248.749       158.75731     -7089.9917      24639.89       23887.872      28.8           28.8           28.8         
       100   273.30084     -7165.189       72.314177     -7092.8749      675.39957      24528.134      29.055042      29.055042      29.055042    
       200   315.08105     -7172.3619      83.369034     -7088.9929     -1683.2426      24544.504      29.061504      29.061504      29.061504    
       300   311.52774     -7169.1687      82.428842     -7086.7398     -647.65783      24541.846      29.060455      29.060455      29.060455    
       400   305.55619     -7168.9235      80.848797     -7088.0747      401.56439      24523.564      29.053237      29.053237      29.053237    
       500   298.40048     -7169.8674      78.955428     -7090.9119      433.93488      24515.004      29.049856      29.049856      29.049856    
       600   298.29516     -7170.6027      78.927561     -7091.6751     -144.53526      24526.69       29.054471      29.054471      29.054471    
       700   296.47679     -7170.3573      78.446429     -7091.9108     -333.96276      24527.848      29.054929      29.054929      29.054929    
       800   312.91284     -7172.8164      82.795334     -7090.0211      30.815876      24517.933      29.051013      29.051013      29.051013    
       900   302.86544     -7168.7632      80.136837     -7088.6263      355.88464      24522.507      29.05282       29.05282       29.05282     
      1000   305.59382     -7168.6189      80.858756     -7087.7602      347.04981      24522.76       29.05292       29.05292       29.05292     
      1100   296.74176     -7167.2251      78.516539     -7088.7086     -638.02887      24544.704      29.061583      29.061583      29.061583    
      1200   288.38799     -7167.359       76.306169     -7091.0528     -876.90208      24545.747      29.061995      29.061995      29.061995    
      1300   303.63168     -7171.9193      80.339582     -7091.5797      932.95771      24502.626      29.044966      29.044966      29.044966    
      1400   291.8328      -7168.7776      77.217651     -7091.5599      2542.9854      24483.823      29.037535      29.037535      29.037535    
      1500   302.10728     -7169.3822      79.936233     -7089.446      -565.95668      24537.552      29.05876       29.05876       29.05876     
      1600   300.25207     -7166.9173      79.445351     -7087.4719     -4014.4093      24606.492      29.085949      29.085949      29.085949    
      1700   299.5297      -7166.5803      79.254216     -7087.3261     -799.8936       24550.63       29.063922      29.063922      29.063922    
      1800   299.66953     -7170.1342      79.291214     -7090.8429      2090.0981      24486.743      29.038689      29.038689      29.038689    
      1900   300.02875     -7171.6921      79.386263     -7092.3058      993.72188      24501.668      29.044588      29.044588      29.044588    
      2000   295.72529     -7169.7713      78.247587     -7091.5238     -890.19837      24541.124      29.06017       29.06017       29.06017     
      2100   302.488       -7168.9849      80.036968     -7088.9479     -835.12169      24540.795      29.06004       29.06004       29.06004     
      2200   318.17468     -7171.2319      84.187595     -7087.0443      483.1751       24514.821      29.049784      29.049784      29.049784    
      2300   314.37978     -7170.9099      83.18348      -7087.7264      970.25687      24508.202      29.047169      29.047169      29.047169    
      2400   296.52787     -7167.8857      78.459946     -7089.4258     -19.428723      24531.041      29.056189      29.056189      29.056189    
      2500   300.2282      -7169.416       79.439037     -7089.977      -1292.7048      24550.235      29.063766      29.063766      29.063766    
      2600   289.7728      -7168.7946      76.672585     -7092.122      -537.47466      24538.429      29.059106      29.059106      29.059106    
      2700   283.83982     -7170.6926      75.102744     -7095.5899      2167.5624      24481.614      29.036662      29.036662      29.036662    
      2800   288.08102     -7170.9029      76.224946     -7094.678       1863.0113      24487.922      29.039155      29.039155      29.039155    
      2900   293.36549     -7169.0736      77.623193     -7091.4504     -2333.4526      24568.489      29.070967      29.070967      29.070967    
      3000   299.38182     -7169.4644      79.215086     -7090.2493     -2698.3283      24573.785      29.073056      29.073056      29.073056    
      3100   299.33943     -7167.8505      79.203871     -7088.6467      815.81474      24518.83       29.051367      29.051367      29.051367    
      3200   310.43218     -7169.2821      82.138964     -7087.1431      1659.1792      24501.201      29.044403      29.044403      29.044403    
      3300   299.75279     -7168.4696      79.313244     -7089.1564      12.370299      24530.846      29.056113      29.056113      29.056113    
      3400   303.09029     -7172.0511      80.196332     -7091.8548     -878.01472      24535.346      29.057889      29.057889      29.057889    
      3500   303.04272     -7171.8807      80.183744     -7091.697      -267.29722      24524.154      29.05347       29.05347       29.05347     
      3600   298.33354     -7169.6846      78.937718     -7090.7469      790.9562       24513.445      29.04924       29.04924       29.04924     
      3700   295.58716     -7168.0359      78.211036     -7089.8249      715.94268      24518.236      29.051133      29.051133      29.051133    
      3800   310.34257     -7169.9043      82.115253     -7087.789      -601.42405      24538.956      29.059314      29.059314      29.059314    
      3900   309.25578     -7166.0322      81.827693     -7084.2045     -1373.1292      24565.482      29.069781      29.069781      29.069781    
      4000   318.97685     -7167.8687      84.399845     -7083.4689      313.76623      24531.389      29.056327      29.056327      29.056327    
      4100   309.24491     -7169.0667      81.824816     -7087.2418      2092.1482      24495.508      29.042153      29.042153      29.042153    
      4200   299.75895     -7168.7741      79.314875     -7089.4592      579.26288      24520.88       29.052177      29.052177      29.052177    
      4300   295.86658     -7169.526       78.284972     -7091.2411     -2436.6134      24568.721      29.071059      29.071059      29.071059    
      4400   302.21885     -7170.7352      79.965753     -7090.7694     -1710.6086      24555.04       29.065662      29.065662      29.065662    
      4500   302.26646     -7169.8147      79.978349     -7089.8363      1847.7781      24494.693      29.041832      29.041832      29.041832    
      4600   303.15834     -7167.3229      80.214338     -7087.1086      1909.0634      24503.432      29.045285      29.045285      29.045285    
      4700   307.81342     -7167.4388      81.446051     -7085.9928     -626.12071      24548.02       29.062892      29.062892      29.062892    
      4800   302.29868     -7169.168       79.986876     -7089.1811     -742.04704      24542.657      29.060775      29.060775      29.060775    
      4900   297.16011     -7169.5511      78.627232     -7090.9239      18.937509      24526.56       29.05442       29.05442       29.05442     
      5000   300.50008     -7170.0202      79.510973     -7090.5092      449.22625      24518.701      29.051317      29.051317      29.051317    
      5100   301.9242      -7169.8906      79.88779      -7090.0028      187.33095      24523.869      29.053358      29.053358      29.053358    
      5200   302.33999     -7168.6117      79.997805     -7088.6139     -435.87644      24538.128      29.058987      29.058987      29.058987    
      5300   302.41552     -7166.1245      80.017791     -7086.1067     -623.58859      24552.792      29.064775      29.064775      29.064775    
      5400   305.04115     -7168.017       80.712521     -7087.3045      655.43825      24522.824      29.052945      29.052945      29.052945    
      5500   299.92247     -7170.0464      79.358141     -7090.6882      1385.5256      24502.783      29.045028      29.045028      29.045028    
      5600   297.78447     -7169.9659      78.792435     -7091.1734     -561.5652       24536.159      29.05821       29.05821       29.05821     
      5700   304.81765     -7170.7747      80.653383     -7090.1214     -2399.5757      24567.281      29.070491      29.070491      29.070491    
      5800   303.57283     -7168.7863      80.324011     -7088.4623     -290.2155       24537.413      29.058705      29.058705      29.058705    
      5900   312.21995     -7168.4217      82.611999     -7085.8097      2774.4726      24487.067      29.038817      29.038817      29.038817    
      6000   294.19874     -7164.3761      77.843666     -7086.5324      1163.882       24525.584      29.054035      29.054035      29.054035    
      6100   297.35113     -7169.3268      78.677777     -7090.649      -1745.6372      24558.849      29.067165      29.067165      29.067165    
      6200   293.39104     -7169.9981      77.629954     -7092.3682     -1057.111       24542.456      29.060696      29.060696      29.060696    
      6300   289.13902     -7168.0133      76.504888     -7091.5084      379.36255      24523.785      29.053324      29.053324      29.053324    
      6400   296.64635     -7167.4919      78.491294     -7089.0006      625.50048      24523.776      29.053321      29.053321      29.053321    
      6500   300.25409     -7167.9637      79.445887     -7088.5178     -137.04426      24535.626      29.058         29.058         29.058       
      6600   291.63383     -7166.6633      77.165003     -7089.4983     -716.59906      24548.116      29.06293       29.06293       29.06293     
      6700   294.43581     -7168.0809      77.906394     -7090.1745     -284.17122      24536.228      29.058237      29.058237      29.058237    
      6800   296.06503     -7168.6248      78.337479     -7090.2873      907.39748      24513.539      29.049278      29.049278      29.049278    
      6900   288.96909     -7166.4255      76.459925     -7089.9656      779.49073      24522.224      29.052708      29.052708      29.052708    
      7000   295.73457     -7167.6726      78.250042     -7089.4225     -1350.5587      24557.967      29.066816      29.066816      29.066816    
      7100   307.53618     -7171.1283      81.372695     -7089.7556     -1736.8546      24551.838      29.064398      29.064398      29.064398    
      7200   296.99048     -7170.0848      78.58235      -7091.5024      771.23019      24512.267      29.048775      29.048775      29.048775    
      7300   292.78062     -7170.31        77.46844      -7092.8416      2227.9193      24484.37       29.037751      29.037751      29.037751    
      7400   295.05917     -7169.4378      78.071333     -7091.3665      11.676949      24526.084      29.054232      29.054232      29.054232    
      7500   298.38157     -7167.0506      78.950426     -7088.1002     -2285.3992      24576.487      29.074121      29.074121      29.074121    
      7600   304.8912      -7168.5525      80.672844     -7087.8796     -852.82289      24546.556      29.062314      29.062314      29.062314    
      7700   298.48136     -7168.5674      78.97683      -7089.5905      1777.267       24498.671      29.043404      29.043404      29.043404    
      7800   301.73055     -7170.3293      79.836552     -7090.4927      1278.9501      24503.125      29.045163      29.045163      29.045163    
      7900   299.45312     -7170.367       79.233953     -7091.1331     -827.70873      24538.453      29.059116      29.059116      29.059116    
      8000   301.8635      -7170.5028      79.871729     -7090.6311     -1203.2307      24545.76       29.062         29.062         29.062       
      8100   304.4805      -7170.7551      80.564174     -7090.1909      325.04409      24518.662      29.051301      29.051301      29.051301    
      8200   302.88299     -7169.7415      80.141482     -7089.6         996.68024      24510.36       29.048022      29.048022      29.048022    
      8300   304.59446     -7168.5526      80.594328     -7087.9583      100.31289      24531.11       29.056217      29.056217      29.056217    
      8400   305.7696      -7167.5368      80.905265     -7086.6316     -840.94983      24550.522      29.063879      29.063879      29.063879    
      8500   296.94861     -7167.0335      78.571272     -7088.4622     -592.04211      24546.218      29.062181      29.062181      29.062181    
      8600   298.81151     -7170.6235      79.064186     -7091.5593      1236.653       24501.421      29.04449       29.04449       29.04449     
      8700   299.5533      -7171.3204      79.260461     -7092.06        2007.6542      24485.816      29.038323      29.038323      29.038323    
      8800   291.47105     -7167.8208      77.121934     -7090.6989     -1622.0822      24560.355      29.067759      29.067759      29.067759    
      8900   301.85215     -7167.6322      79.868726     -7087.7635     -3185.0654      24589.588      29.079287      29.079287      29.079287    
      9000   307.69928     -7169.4237      81.415851     -7088.0078      427.24003      24521.844      29.052558      29.052558      29.052558    
      9100   296.04081     -7167.8262      78.331071     -7089.4952      2369.5107      24491.352      29.040511      29.040511      29.040511    
      9200   298.02928     -7169.4293      78.85721      -7090.5721      436.36657      24520.109      29.051873      29.051873      29.051873    
      9300   293.36768     -7169.25        77.623773     -7091.6262     -1333.425       24549.487      29.063471      29.063471      29.063471    
      9400   296.6581      -7170.0458      78.494404     -7091.5514     -645.19533      24535.656      29.058012      29.058012      29.058012    
      9500   300.45178     -7168.9695      79.498194     -7089.4713      595.79407      24518.915      29.051401      29.051401      29.051401    
      9600   308.19763     -7169.0232      81.547712     -7087.4755      424.64465      24523.693      29.053288      29.053288      29.053288    
      9700   296.60976     -7166.8336      78.481613     -7088.352      -208.53355      24541.002      29.060122      29.060122      29.060122    
      9800   301.73171     -7171.1717      79.836858     -7091.3348     -181.49171      24524.245      29.053506      29.053506      29.053506    
      9900   291.16907     -7170.0271      77.042032     -7092.9851     -36.955897      24524.635      29.05366       29.05366       29.05366     
     10000   295.09045     -7169.9497      78.079611     -7091.8701      227.92625      24521.845      29.052558      29.052558      29.052558    
Loop time of 23.8246 on 1 procs for 10000 steps with 2048 atoms

Performance: 36.265 ns/day, 0.662 hours/ns, 419.734 timesteps/s, 859.614 katom-step/s
98.5% CPU use with 1 MPI tasks x no OpenMP threads

MPI task timing breakdown:
Section |  min time  |  avg time  |  max time  |%varavg| %total
---------------------------------------------------------------
Pair    | 23.078     | 23.078     | 23.078     |   0.0 | 96.87
Neigh   | 0          | 0          | 0          |   0.0 |  0.00
Comm    | 0.19969    | 0.19969    | 0.19969    |   0.0 |  0.84
Output  | 0.0037675  | 0.0037675  | 0.0037675  |   0.0 |  0.02
Modify  | 0.49577    | 0.49577    | 0.49577    |   0.0 |  2.08
Other   |            | 0.04745    |            |       |  0.20

Nlocal:           2048 ave        2048 max        2048 min
Histogram: 1 0 0 0 0 0 0 0 0 0
Nghost:           5765 ave        5765 max        5765 min
Histogram: 1 0 0 0 0 0 0 0 0 0
Neighs:         143360 ave      143360 max      143360 min
Histogram: 1 0 0 0 0 0 0 0 0 0

Total # of neighbors = 143360
Ave neighs/atom = 70
Neighbor list builds = 0
Dangerous builds = 0
Total wall time: 0:00:23
